 Entering Gaussian System
 *********************************************
 Gaussian 98:
 frequency output generated by the xtb code
 *********************************************
                         Standard orientation:
 --------------------------------------------------------------------
  Center     Atomic     Atomic              Coordinates (Angstroms)
  Number     Number      Type              X           Y           Z
 --------------------------------------------------------------------
    1          6             0       -1.570409    0.034145    0.567736
    2          6             0       -0.672708   -0.363928   -0.598956
    3          6             0        0.672681    0.363178   -0.599396
    4          6             0        1.570334   -0.033436    0.567823
    5          1             0       -2.537225   -0.457243    0.483982
    6          1             0       -1.127067   -0.252811    1.517480
    7          1             0       -1.732058    1.110063    0.573100
    8          1             0       -0.498498   -1.441987   -0.570746
    9          1             0       -1.190976   -0.137804   -1.534013
   10          1             0        0.498468    1.441271   -0.572552
   11          1             0        1.190984    0.135875   -1.534147
   12          1             0        1.732407   -1.109282    0.574226
   13          1             0        2.536975    0.458262    0.483781
   14          1             0        1.126692    0.254227    1.517216
 --------------------------------------------------------------------
     1 basis functions        1 primitive gaussians
     1 alpha electrons        1 beta electrons
 
 Harmonic frequencies (cm**-1), IR intensities (KM/Mole),
 Raman scattering activities (A**4/amu), Raman depolarization ratios,
 reduced masses (AMU), force constants (mDyne/A) and normal coordinates:
                      1                      2                      3
                        a                      a                      a 
 Frequencies --    96.2207               200.5975               258.0911
 Red. masses --    99.0000                99.0000                99.0000
 Frc consts  --    99.0000                99.0000                99.0000
 IR Inten    --    99.0000                99.0000                99.0000
 Raman Activ --     0.0000                 0.0000                 0.0000
 Depolar     --     0.0000                 0.0000                 0.0000
 Atom AN      X      Y      Z        X      Y      Z        X      Y      Z
   1   6    -0.25   0.17  -0.17    -0.02  -0.09  -0.01    -0.31  -0.04  -0.12
   2   6     0.07  -0.13   0.18     0.02   0.10  -0.04     0.03  -0.07   0.14
   3   6    -0.07   0.13   0.18     0.02   0.10   0.04    -0.03   0.07   0.14
   4   6     0.25  -0.17  -0.17    -0.02  -0.09   0.01     0.31   0.04  -0.12
   5   1     0.01  -0.12   0.02     0.14  -0.35   0.19    -0.18   0.21  -0.27
   6   1    -0.05   0.31   0.02     0.19   0.30   0.01    -0.30  -0.26  -0.01
   7   1    -0.24   0.03  -0.27    -0.35  -0.08  -0.20     0.15   0.02   0.11
   8   1     0.08  -0.02   0.19     0.03   0.03  -0.04     0.04  -0.01   0.08
   9   1     0.06  -0.18  -0.00     0.00   0.04  -0.01     0.06  -0.07   0.00
  10   1    -0.08   0.03   0.19     0.03   0.03   0.03    -0.04   0.01   0.08
  11   1    -0.06   0.18  -0.00     0.00   0.04   0.01    -0.05   0.07   0.00
  12   1     0.24  -0.03  -0.27    -0.35  -0.08   0.20    -0.15  -0.02   0.11
  13   1    -0.01   0.12   0.02     0.14  -0.35  -0.19     0.18  -0.22  -0.27
  14   1     0.05  -0.31   0.02     0.19   0.30  -0.01     0.30   0.26  -0.01
                      4                      5                      6
                        a                      a                      a 
 Frequencies --   322.3971               432.0968               787.8178
 Red. masses --    99.0000                99.0000                99.0000
 Frc consts  --    99.0000                99.0000                99.0000
 IR Inten    --    99.0000                99.0000                99.0000
 Raman Activ --     0.0000                 0.0000                 0.0000
 Depolar     --     0.0000                 0.0000                 0.0000
 Atom AN      X      Y      Z        X      Y      Z        X      Y      Z
   1   6     0.35   0.12  -0.03    -0.22  -0.10   0.13    -0.01   0.00   0.11
   2   6     0.18  -0.30   0.00     0.26   0.17   0.33     0.14  -0.14   0.13
   3   6    -0.18   0.30   0.00     0.26   0.17  -0.33     0.14  -0.14  -0.13
   4   6    -0.35  -0.12  -0.03    -0.22  -0.10  -0.13    -0.01   0.00  -0.11
   5   1     0.03   0.18   0.02    -0.01  -0.10  -0.16    -0.01   0.03  -0.12
   6   1     0.07  -0.01  -0.01    -0.20  -0.06   0.09    -0.23   0.15   0.18
   7   1     0.26   0.06  -0.03    -0.15  -0.04   0.08     0.01   0.01  -0.19
   8   1     0.17  -0.06   0.15     0.18   0.07   0.21    -0.16  -0.07  -0.31
   9   1     0.01  -0.26  -0.02     0.03  -0.12   0.08    -0.04   0.34   0.16
  10   1    -0.17   0.06   0.15     0.18   0.07  -0.21    -0.16  -0.07   0.31
  11   1    -0.01   0.26  -0.02     0.03  -0.12  -0.08    -0.04   0.34  -0.16
  12   1    -0.26  -0.06  -0.03    -0.15  -0.04  -0.08     0.01   0.01   0.19
  13   1    -0.03  -0.18   0.02    -0.01  -0.10   0.16    -0.01   0.03   0.12
  14   1    -0.07   0.01  -0.01    -0.20  -0.06  -0.09    -0.23   0.15  -0.18
                      7                      8                      9
                        a                      a                      a 
 Frequencies --  1508.2106              1517.0102               831.3494
 Red. masses --    99.0000                99.0000                99.0000
 Frc consts  --    99.0000                99.0000                99.0000
 IR Inten    --    99.0000                99.0000                99.0000
 Raman Activ --     0.0000                 0.0000                 0.0000
 Depolar     --     0.0000                 0.0000                 0.0000
 Atom AN      X      Y      Z        X      Y      Z        X      Y      Z
   1   6     0.11   0.07   0.08    -0.02  -0.14   0.06    -0.13   0.09   0.06
   2   6     0.03   0.01   0.00    -0.01  -0.04   0.01    -0.16   0.07  -0.19
   3   6     0.03   0.01  -0.00     0.01   0.04   0.01     0.16  -0.07  -0.19
   4   6     0.11   0.07  -0.08     0.02   0.14   0.06     0.13  -0.09   0.06
   5   1    -0.09   0.17   0.14    -0.11   0.27  -0.35    -0.00  -0.06   0.12
   6   1    -0.04  -0.41  -0.10     0.33   0.33  -0.05     0.17  -0.15  -0.13
   7   1    -0.32  -0.04  -0.36    -0.13  -0.03   0.17    -0.13   0.01   0.29
   8   1    -0.01   0.00   0.03     0.01  -0.01  -0.01    -0.00   0.03   0.31
   9   1    -0.02   0.02   0.02    -0.00   0.01   0.01    -0.01  -0.31  -0.15
  10   1    -0.01   0.00  -0.03    -0.01   0.01  -0.01     0.00  -0.03   0.31
  11   1    -0.02   0.02  -0.02     0.00  -0.01   0.01     0.01   0.31  -0.15
  12   1    -0.32  -0.04   0.36     0.13   0.03   0.17     0.13  -0.01   0.29
  13   1    -0.09   0.17  -0.14     0.11  -0.27  -0.35     0.00   0.06   0.12
  14   1    -0.04  -0.41   0.10    -0.33  -0.33  -0.05    -0.17   0.15  -0.13
                     10                     11                     12
                        a                      a                      a 
 Frequencies --  1503.4333               884.6530              1504.9005
 Red. masses --    99.0000                99.0000                99.0000
 Frc consts  --    99.0000                99.0000                99.0000
 IR Inten    --    99.0000                99.0000                99.0000
 Raman Activ --     0.0000                 0.0000                 0.0000
 Depolar     --     0.0000                 0.0000                 0.0000
 Atom AN      X      Y      Z        X      Y      Z        X      Y      Z
   1   6     0.04  -0.13   0.06     0.26   0.07  -0.16     0.11   0.01   0.06
   2   6    -0.01  -0.06  -0.02     0.24   0.29   0.17     0.07   0.09   0.10
   3   6    -0.01  -0.06   0.02    -0.24  -0.29   0.17    -0.07  -0.09   0.10
   4   6     0.04  -0.13  -0.06    -0.26  -0.07  -0.16    -0.11  -0.01   0.06
   5   1    -0.16   0.36  -0.28     0.19  -0.17  -0.29    -0.12   0.25   0.06
   6   1     0.27   0.21  -0.06    -0.03  -0.10  -0.04     0.02  -0.23  -0.07
   7   1    -0.27  -0.05   0.09    -0.15  -0.02   0.12    -0.34  -0.05  -0.22
   8   1     0.08   0.01   0.09     0.01   0.07   0.15    -0.14  -0.03  -0.25
   9   1    -0.01   0.12   0.04     0.10   0.02   0.01    -0.02  -0.27  -0.04
  10   1     0.08   0.01  -0.09    -0.01  -0.07   0.15     0.14   0.03  -0.25
  11   1    -0.01   0.12  -0.04    -0.10  -0.02   0.01     0.02   0.27  -0.04
  12   1    -0.27  -0.05  -0.09     0.15   0.02   0.12     0.34   0.05  -0.22
  13   1    -0.16   0.36   0.28    -0.19   0.17  -0.29     0.12  -0.25   0.06
  14   1     0.27   0.21   0.06     0.03   0.10  -0.04    -0.02   0.23  -0.07
                     13                     14                     15
                        a                      a                      a 
 Frequencies --  1493.8002              1490.9066              1188.2603
 Red. masses --    99.0000                99.0000                99.0000
 Frc consts  --    99.0000                99.0000                99.0000
 IR Inten    --    99.0000                99.0000                99.0000
 Raman Activ --     0.0000                 0.0000                 0.0000
 Depolar     --     0.0000                 0.0000                 0.0000
 Atom AN      X      Y      Z        X      Y      Z        X      Y      Z
   1   6    -0.05  -0.02  -0.07     0.03  -0.03   0.02     0.01   0.24  -0.04
   2   6     0.01   0.10   0.12     0.05   0.13   0.14    -0.02  -0.44   0.06
   3   6    -0.01  -0.10   0.12     0.05   0.13  -0.14     0.02   0.44   0.05
   4   6     0.05   0.02  -0.07     0.03  -0.03  -0.02    -0.01  -0.24  -0.04
   5   1     0.08  -0.15  -0.01    -0.05   0.11  -0.06     0.10  -0.12  -0.07
   6   1    -0.05   0.21   0.08     0.06   0.05  -0.01     0.04  -0.13  -0.08
   7   1     0.22   0.03   0.22    -0.09  -0.01   0.02    -0.18   0.02   0.23
   8   1    -0.16  -0.03  -0.35    -0.20  -0.04  -0.42    -0.19  -0.14  -0.17
   9   1     0.02  -0.37  -0.10     0.02  -0.45  -0.12     0.02   0.14   0.06
  10   1     0.16   0.03  -0.35    -0.20  -0.04   0.42     0.19   0.14  -0.17
  11   1    -0.02   0.37  -0.10     0.02  -0.45   0.12    -0.02  -0.14   0.06
  12   1    -0.22  -0.03   0.22    -0.09  -0.01  -0.02     0.18  -0.02   0.23
  13   1    -0.08   0.15  -0.01    -0.05   0.11   0.06    -0.10   0.12  -0.07
  14   1     0.05  -0.21   0.08     0.06   0.05   0.01    -0.04   0.13  -0.08
                     16                     17                     18
                        a                      a                      a 
 Frequencies --   981.4548              1145.3591              1017.3333
 Red. masses --    99.0000                99.0000                99.0000
 Frc consts  --    99.0000                99.0000                99.0000
 IR Inten    --    99.0000                99.0000                99.0000
 Raman Activ --     0.0000                 0.0000                 0.0000
 Depolar     --     0.0000                 0.0000                 0.0000
 Atom AN      X      Y      Z        X      Y      Z        X      Y      Z
   1   6    -0.01  -0.21  -0.01     0.10   0.11   0.27    -0.05  -0.09  -0.27
   2   6    -0.08   0.13  -0.00    -0.05  -0.07  -0.40    -0.00   0.04   0.27
   3   6    -0.08   0.13   0.00    -0.05  -0.06   0.40     0.00  -0.04   0.27
   4   6    -0.01  -0.21   0.01     0.10   0.11  -0.28     0.05   0.09  -0.27
   5   1    -0.12   0.17   0.12     0.08  -0.05  -0.20    -0.08   0.06   0.26
   6   1    -0.03   0.14   0.07    -0.25   0.04   0.20     0.29  -0.06  -0.22
   7   1     0.24  -0.01  -0.30    -0.14   0.00   0.01     0.14  -0.00   0.01
   8   1     0.38   0.10  -0.09     0.17   0.01  -0.02    -0.06  -0.00   0.01
   9   1    -0.16  -0.10   0.05    -0.03  -0.16  -0.12     0.29   0.14  -0.06
  10   1     0.38   0.10   0.09     0.17   0.01   0.02     0.06   0.00   0.01
  11   1    -0.16  -0.10  -0.05    -0.03  -0.16   0.12    -0.29  -0.14  -0.06
  12   1     0.24  -0.01   0.30    -0.14   0.00  -0.01    -0.14   0.00   0.01
  13   1    -0.12   0.17  -0.12     0.08  -0.05   0.20     0.08  -0.06   0.26
  14   1    -0.03   0.14  -0.07    -0.25   0.04  -0.20    -0.29   0.06  -0.22
                     19                     20                     21
                        a                      a                      a 
 Frequencies --  1138.3582              1020.6543              1256.2713
 Red. masses --    99.0000                99.0000                99.0000
 Frc consts  --    99.0000                99.0000                99.0000
 IR Inten    --    99.0000                99.0000                99.0000
 Raman Activ --     0.0000                 0.0000                 0.0000
 Depolar     --     0.0000                 0.0000                 0.0000
 Atom AN      X      Y      Z        X      Y      Z        X      Y      Z
   1   6    -0.18   0.13   0.18     0.34  -0.04  -0.23     0.07  -0.22   0.09
   2   6     0.43   0.04  -0.17    -0.26   0.09   0.16    -0.03   0.18  -0.06
   3   6    -0.43  -0.04  -0.17    -0.26   0.09  -0.16    -0.03   0.18   0.06
   4   6     0.18  -0.13   0.18     0.34  -0.04   0.23     0.07  -0.22  -0.09
   5   1    -0.04   0.02   0.10     0.15  -0.10  -0.30    -0.05   0.09  -0.00
   6   1     0.01   0.01   0.01    -0.09  -0.03   0.01    -0.09   0.12   0.13
   7   1    -0.05   0.03   0.13    -0.04  -0.03  -0.08     0.11  -0.04  -0.20
   8   1     0.25   0.03  -0.18    -0.06   0.03   0.09    -0.35  -0.00   0.30
   9   1     0.24   0.08  -0.10    -0.25  -0.05   0.12     0.24  -0.02  -0.16
  10   1    -0.25  -0.03  -0.18    -0.06   0.03  -0.09    -0.35  -0.00  -0.30
  11   1    -0.24  -0.08  -0.10    -0.25  -0.05  -0.12     0.24  -0.02   0.16
  12   1     0.05  -0.03   0.13    -0.04  -0.03   0.08     0.11  -0.03   0.20
  13   1     0.04  -0.02   0.10     0.15  -0.10   0.30    -0.05   0.09   0.00
  14   1    -0.02  -0.01   0.01    -0.09  -0.03  -0.01    -0.09   0.12  -0.13
                     22                     23                     24
                        a                      a                      a 
 Frequencies --  1276.9126              1356.6138              1350.2316
 Red. masses --    99.0000                99.0000                99.0000
 Frc consts  --    99.0000                99.0000                99.0000
 IR Inten    --    99.0000                99.0000                99.0000
 Raman Activ --     0.0000                 0.0000                 0.0000
 Depolar     --     0.0000                 0.0000                 0.0000
 Atom AN      X      Y      Z        X      Y      Z        X      Y      Z
   1   6    -0.09   0.07  -0.16     0.08   0.07   0.04    -0.04  -0.04  -0.06
   2   6     0.06   0.08   0.11    -0.40  -0.02   0.11     0.27   0.05  -0.23
   3   6    -0.06  -0.08   0.11     0.40   0.02   0.11     0.27   0.05   0.23
   4   6     0.09  -0.07  -0.16    -0.08  -0.07   0.04    -0.04  -0.04   0.06
   5   1    -0.01  -0.02   0.08     0.06  -0.04  -0.12    -0.07   0.07   0.14
   6   1     0.13  -0.06  -0.13    -0.01  -0.06  -0.01    -0.04   0.05   0.02
   7   1     0.00   0.02   0.10    -0.05   0.01  -0.05    -0.02  -0.01   0.09
   8   1     0.30   0.06  -0.14     0.43   0.08  -0.19    -0.23  -0.03   0.13
   9   1    -0.44  -0.02   0.27     0.20  -0.02  -0.14    -0.45  -0.11   0.20
  10   1    -0.30  -0.06  -0.14    -0.43  -0.08  -0.19    -0.23  -0.03  -0.13
  11   1     0.44   0.02   0.27    -0.20   0.02  -0.14    -0.45  -0.11  -0.20
  12   1     0.00  -0.02   0.10     0.05  -0.01  -0.05    -0.02  -0.01  -0.09
  13   1     0.01   0.02   0.08    -0.06   0.04  -0.12    -0.07   0.07  -0.14
  14   1    -0.13   0.06  -0.13     0.01   0.06  -0.01    -0.04   0.05  -0.02
                     25                     26                     27
                        a                      a                      a 
 Frequencies --  1414.6204              1415.0569              2962.8777
 Red. masses --    99.0000                99.0000                99.0000
 Frc consts  --    99.0000                99.0000                99.0000
 IR Inten    --    99.0000                99.0000                99.0000
 Raman Activ --     0.0000                 0.0000                 0.0000
 Depolar     --     0.0000                 0.0000                 0.0000
 Atom AN      X      Y      Z        X      Y      Z        X      Y      Z
   1   6     0.19  -0.06  -0.23    -0.19   0.08   0.22     0.01  -0.01   0.01
   2   6    -0.07  -0.02   0.07     0.05   0.01  -0.00    -0.07   0.16  -0.10
   3   6    -0.07  -0.02  -0.07    -0.05  -0.01  -0.00     0.07  -0.16  -0.10
   4   6     0.19  -0.06   0.23     0.19  -0.08   0.22    -0.01   0.01   0.01
   5   1    -0.09   0.15   0.32     0.11  -0.18  -0.27    -0.01  -0.01   0.00
   6   1    -0.30   0.10   0.16     0.28  -0.15  -0.17    -0.02   0.01  -0.04
   7   1    -0.22  -0.04   0.27     0.23   0.04  -0.30    -0.01   0.04   0.00
   8   1     0.07   0.01  -0.02    -0.08  -0.02  -0.03     0.08  -0.53   0.01
   9   1     0.11   0.04  -0.04    -0.03  -0.06   0.00     0.19  -0.07   0.35
  10   1     0.07   0.01   0.02     0.08   0.02  -0.03    -0.08   0.54   0.01
  11   1     0.11   0.04   0.04     0.03   0.06   0.00    -0.19   0.07   0.35
  12   1    -0.21  -0.04  -0.27    -0.23  -0.05  -0.30     0.01  -0.04   0.00
  13   1    -0.09   0.14  -0.31    -0.11   0.18  -0.27     0.01   0.01   0.00
  14   1    -0.30   0.10  -0.16    -0.28   0.15  -0.17     0.02  -0.01  -0.04
                     28                     29                     30
                        a                      a                      a 
 Frequencies --  2965.1548              3029.3791              2981.1766
 Red. masses --    99.0000                99.0000                99.0000
 Frc consts  --    99.0000                99.0000                99.0000
 IR Inten    --    99.0000                99.0000                99.0000
 Raman Activ --     0.0000                 0.0000                 0.0000
 Depolar     --     0.0000                 0.0000                 0.0000
 Atom AN      X      Y      Z        X      Y      Z        X      Y      Z
   1   6    -0.01   0.01  -0.01    -0.04  -0.20   0.00     0.01   0.03  -0.00
   2   6     0.09  -0.10   0.14    -0.00  -0.02  -0.00    -0.00  -0.15  -0.04
   3   6     0.09  -0.10  -0.14     0.00   0.02  -0.00    -0.00  -0.16   0.05
   4   6    -0.01   0.01   0.01     0.04   0.20  -0.00     0.01   0.03  -0.00
   5   1     0.01   0.01  -0.00     0.24   0.10   0.03    -0.05  -0.02  -0.01
   6   1     0.02  -0.01   0.05    -0.02  -0.02  -0.02     0.00   0.01  -0.00
   7   1     0.01  -0.05  -0.00    -0.10   0.61  -0.01     0.02  -0.09   0.00
   8   1    -0.03   0.22   0.01    -0.01   0.05  -0.00    -0.11   0.62  -0.03
   9   1    -0.30   0.13  -0.54     0.01  -0.01   0.01     0.11  -0.07   0.19
  10   1    -0.03   0.22  -0.01     0.01  -0.05  -0.00    -0.11   0.63   0.03
  11   1    -0.30   0.13   0.54    -0.01   0.01   0.01     0.12  -0.08  -0.21
  12   1     0.01  -0.05   0.00     0.10  -0.61  -0.01     0.02  -0.09  -0.00
  13   1     0.01   0.01   0.00    -0.25  -0.10   0.03    -0.05  -0.02   0.01
  14   1     0.02  -0.01  -0.05     0.02   0.02  -0.02    -0.00   0.01   0.00
                     31                     32                     33
                        a                      a                      a 
 Frequencies --  2981.2982              3031.8625              3034.2142
 Red. masses --    99.0000                99.0000                99.0000
 Frc consts  --    99.0000                99.0000                99.0000
 IR Inten    --    99.0000                99.0000                99.0000
 Raman Activ --     0.0000                 0.0000                 0.0000
 Depolar     --     0.0000                 0.0000                 0.0000
 Atom AN      X      Y      Z        X      Y      Z        X      Y      Z
   1   6     0.02   0.01   0.01    -0.08  -0.18  -0.03    -0.19   0.01  -0.06
   2   6    -0.05  -0.07  -0.12     0.00  -0.03  -0.00    -0.01   0.00  -0.02
   3   6     0.05   0.07  -0.12     0.00  -0.03   0.00     0.01  -0.00  -0.01
   4   6    -0.02  -0.01   0.01    -0.09  -0.18   0.03     0.14   0.00  -0.04
   5   1    -0.04  -0.02  -0.00     0.36   0.17   0.04     0.59   0.32   0.05
   6   1    -0.02   0.01  -0.04     0.02  -0.05   0.07     0.06  -0.05   0.17
   7   1     0.01  -0.03   0.00    -0.09   0.52  -0.01     0.02  -0.32  -0.01
   8   1    -0.08   0.42  -0.03    -0.02   0.11  -0.01    -0.00  -0.00  -0.00
   9   1     0.26  -0.14   0.47     0.01  -0.01   0.01     0.03  -0.01   0.05
  10   1     0.08  -0.40  -0.03    -0.02   0.11   0.01     0.00  -0.00  -0.00
  11   1    -0.26   0.13   0.46     0.01  -0.01  -0.01    -0.02   0.01   0.04
  12   1    -0.01   0.02   0.00    -0.09   0.51   0.01    -0.01   0.21  -0.01
  13   1     0.04   0.02  -0.00     0.37   0.17  -0.04    -0.47  -0.25   0.04
  14   1     0.02  -0.01  -0.04     0.02  -0.05  -0.07    -0.03   0.03   0.10
                     34                     35                     36
                        a                      a                      a 
 Frequencies --  3034.0682              3050.2677              3044.1065
 Red. masses --    99.0000                99.0000                99.0000
 Frc consts  --    99.0000                99.0000                99.0000
 IR Inten    --    99.0000                99.0000                99.0000
 Raman Activ --     0.0000                 0.0000                 0.0000
 Depolar     --     0.0000                 0.0000                 0.0000
 Atom AN      X      Y      Z        X      Y      Z        X      Y      Z
   1   6     0.13  -0.07   0.07    -0.04   0.04  -0.15    -0.00   0.05  -0.13
   2   6     0.01  -0.01   0.01    -0.01   0.01  -0.02    -0.00   0.01  -0.01
   3   6     0.01  -0.02  -0.01     0.01  -0.01  -0.02    -0.00   0.01   0.01
   4   6     0.18  -0.07  -0.08     0.04  -0.04  -0.15    -0.00   0.05   0.13
   5   1    -0.34  -0.19  -0.03    -0.13  -0.06  -0.03    -0.24  -0.12  -0.04
   6   1    -0.09   0.06  -0.21     0.29  -0.18   0.57     0.27  -0.17   0.53
   7   1    -0.03   0.36   0.01    -0.02   0.09  -0.02    -0.02   0.12  -0.02
   8   1    -0.00   0.04  -0.00     0.00  -0.01  -0.00     0.00  -0.01  -0.00
   9   1    -0.02   0.01  -0.04     0.03  -0.01   0.05     0.02  -0.01   0.02
  10   1    -0.00   0.04   0.00    -0.00   0.01  -0.00     0.00  -0.01   0.00
  11   1    -0.03   0.01   0.05    -0.03   0.01   0.05     0.02  -0.01  -0.03
  12   1    -0.04   0.44  -0.01     0.02  -0.09  -0.02    -0.02   0.12   0.02
  13   1    -0.48  -0.27   0.04     0.13   0.06  -0.03    -0.24  -0.12   0.04
  14   1    -0.11   0.07   0.25    -0.28   0.18   0.57     0.27  -0.17  -0.54
