      -----------------------------------------------------------      
     |                   =====================                   |     
     |                           x T B                           |     
     |                   =====================                   |     
     |                         S. Grimme                         |     
     |          Mulliken Center for Theoretical Chemistry        |     
     |                    University of Bonn                     |     
      -----------------------------------------------------------      

   * xtb version 6.6.1 (8d0f1dd) compiled by 'stahn@M-Bot' on 2023-08-01

   xtb is free software: you can redistribute it and/or modify it under
   the terms of the GNU Lesser General Public License as published by
   the Free Software Foundation, either version 3 of the License, or
   (at your option) any later version.
   
   xtb is distributed in the hope that it will be useful,
   but WITHOUT ANY WARRANTY; without even the implied warranty of
   MERCHANTABILITY or FITNESS FOR A PARTICULAR PURPOSE.  See the
   GNU Lesser General Public License for more details.
   
   Cite this work as:
   * C. Bannwarth, E. Caldeweyher, S. Ehlert, A. Hansen, P. Pracht,
     J. Seibert, S. Spicher, S. Grimme, WIREs Comput. Mol. Sci., 2020, 11,
     e01493. DOI: 10.1002/wcms.1493
   
   for GFN2-xTB:
   * C. Bannwarth, S. Ehlert and S. Grimme., J. Chem. Theory Comput., 2019,
     15, 1652-1671. DOI: 10.1021/acs.jctc.8b01176
   for GFN1-xTB:
   * S. Grimme, C. Bannwarth, P. Shushkov, J. Chem. Theory Comput., 2017,
     13, 1989-2009. DOI: 10.1021/acs.jctc.7b00118
   for GFN0-xTB:
   * P. Pracht, E. Caldeweyher, S. Ehlert, S. Grimme, ChemRxiv, 2019, preprint.
     DOI: 10.26434/chemrxiv.8326202.v1
   for GFN-FF:
   * S. Spicher and S. Grimme, Angew. Chem. Int. Ed., 2020, 59, 15665-15673.
     DOI: 10.1002/anie.202004239
   
   for ALPB and GBSA implicit solvation:
   * S. Ehlert, M. Stahn, S. Spicher, S. Grimme, J. Chem. Theory Comput.,
     2021, 17, 4250-4261. DOI: 10.1021/acs.jctc.1c00471
   
   for DFT-D4:
   * E. Caldeweyher, C. Bannwarth and S. Grimme, J. Chem. Phys., 2017,
     147, 034112. DOI: 10.1063/1.4993215
   * E. Caldeweyher, S. Ehlert, A. Hansen, H. Neugebauer, S. Spicher,
     C. Bannwarth and S. Grimme, J. Chem. Phys., 2019, 150, 154122.
     DOI: 10.1063/1.5090222
   * E. Caldeweyher, J.-M. Mewes, S. Ehlert and S. Grimme, Phys. Chem. Chem. Phys.
     2020, 22, 8499-8512. DOI: 10.1039/D0CP00502A
   
   for sTDA-xTB:
   * S. Grimme and C. Bannwarth, J. Chem. Phys., 2016, 145, 054103.
     DOI: 10.1063/1.4959605
   
   in the mass-spec context:
   * V. Asgeirsson, C. Bauer and S. Grimme, Chem. Sci., 2017, 8, 4879.
     DOI: 10.1039/c7sc00601b
   * J. Koopman and S. Grimme, ACS Omega 2019, 4, 12, 15120-15133.
     DOI: 10.1021/acsomega.9b02011
   
   for metadynamics refer to:
   * S. Grimme, J. Chem. Theory Comput., 2019, 155, 2847-2862
     DOI: 10.1021/acs.jctc.9b00143
   
   for SPH calculations refer to:
   * S. Spicher and S. Grimme, J. Chem. Theory Comput., 2021, 17, 1701-1714
     DOI: 10.1021/acs.jctc.0c01306
   
   with help from (in alphabetical order)
   P. Atkinson, C. Bannwarth, F. Bohle, G. Brandenburg, E. Caldeweyher
   M. Checinski, S. Dohm, S. Ehlert, S. Ehrlich, I. Gerasimov, C. Hölzer
   A. Katbashev, J. Koopman, C. Lavigne, S. Lehtola, F. März, M. Müller,
   F. Musil, H. Neugebauer, J. Pisarek, C. Plett, P. Pracht, F. Pultar,
   J. Seibert, P. Shushkov, S. Spicher, M. Stahn, M. Steiner, T. Strunk,
   J. Stückrath, T. Rose, and J. Unsleber
   
 * started run on 2024/04/23 at 12:09:57.285     

           -------------------------------------------------
          |                Calculation Setup                |
           -------------------------------------------------

          program call               : xtb folded.xyz --gfn 2 --ohess -P 4
          coordinate file            : folded.xyz
          omp threads                :                     4

   ID    Z sym.   atoms
    1    6 C      1-4
    2    1 H      5-14

           -------------------------------------------------
          |                 G F N 2 - x T B                 |
           -------------------------------------------------

        Reference                      10.1021/acs.jctc.8b01176
      * Hamiltonian:
        H0-scaling (s, p, d)           1.850000    2.230000    2.230000
        zeta-weighting                 0.500000
      * Dispersion:
        s8                             2.700000
        a1                             0.520000
        a2                             5.000000
        s9                             5.000000
      * Repulsion:
        kExp                           1.500000    1.000000
        rExp                           1.000000
      * Coulomb:
        alpha                          2.000000
        third order                    shell-resolved
        anisotropic                    true
        a3                             3.000000
        a5                             4.000000
        cn-shift                       1.200000
        cn-exp                         4.000000
        max-rad                        5.000000


          ...................................................
          :                      SETUP                      :
          :.................................................:
          :  # basis functions                  26          :
          :  # atomic orbitals                  26          :
          :  # shells                           18          :
          :  # electrons                        26          :
          :  max. iterations                   250          :
          :  Hamiltonian                  GFN2-xTB          :
          :  restarted?                      false          :
          :  GBSA solvation                  false          :
          :  PC potential                    false          :
          :  electronic temp.          300.0000000     K    :
          :  accuracy                    1.0000000          :
          :  -> integral cutoff          0.2500000E+02      :
          :  -> integral neglect         0.1000000E-07      :
          :  -> SCF convergence          0.1000000E-05 Eh   :
          :  -> wf. convergence          0.1000000E-03 e    :
          :  Broyden damping             0.4000000          :
          ...................................................

 iter      E             dE          RMSdq      gap      omega  full diag
   1    -13.8267071 -0.138267E+02  0.248E+00   14.26       0.0  T
   2    -13.8672573 -0.405502E-01  0.124E+00   13.97       1.0  T
   3    -13.8676288 -0.371500E-03  0.678E-01   13.96       1.0  T
   4    -13.8677479 -0.119094E-03  0.899E-02   13.94       1.0  T
   5    -13.8677523 -0.441159E-05  0.479E-02   13.95       1.0  T
   6    -13.8677529 -0.563161E-06  0.298E-03   13.95       9.0  T
   7    -13.8677529 -0.114632E-07  0.630E-04   13.95      42.4  T
   8    -13.8677529 -0.512244E-09  0.160E-04   13.95     167.3  T

   *** convergence criteria satisfied after 8 iterations ***

         #    Occupation            Energy/Eh            Energy/eV
      -------------------------------------------------------------
         1        2.0000           -0.6169890             -16.7891
       ...           ...                  ...                  ...
         7        2.0000           -0.4841115             -13.1733
         8        2.0000           -0.4674327             -12.7195
         9        2.0000           -0.4613899             -12.5551
        10        2.0000           -0.4485729             -12.2063
        11        2.0000           -0.4272292             -11.6255
        12        2.0000           -0.4220961             -11.4858
        13        2.0000           -0.4217079             -11.4753 (HOMO)
        14                          0.0908807               2.4730 (LUMO)
        15                          0.1068452               2.9074
        16                          0.1296511               3.5280
        17                          0.1397579               3.8030
        18                          0.1451900               3.9508
       ...                                ...                  ...
        26                          0.2903383               7.9005
      -------------------------------------------------------------
                  HL-Gap            0.5125886 Eh           13.9482 eV
             Fermi-level           -0.1654136 Eh           -4.5011 eV

 SCC (total)                   0 d,  0 h,  0 min,  0.117 sec
 SCC setup                      ...        0 min,  0.032 sec ( 26.991%)
 Dispersion                     ...        0 min,  0.000 sec (  0.122%)
 classical contributions        ...        0 min,  0.000 sec (  0.010%)
 integral evaluation            ...        0 min,  0.014 sec ( 12.387%)
 iterations                     ...        0 min,  0.053 sec ( 45.224%)
 molecular gradient             ...        0 min,  0.017 sec ( 14.492%)
 printout                       ...        0 min,  0.001 sec (  0.741%)

         :::::::::::::::::::::::::::::::::::::::::::::::::::::
         ::                     SUMMARY                     ::
         :::::::::::::::::::::::::::::::::::::::::::::::::::::
         :: total energy             -13.663344418013 Eh    ::
         :: gradient norm              0.019580317001 Eh/a0 ::
         :: HOMO-LUMO gap             13.948247118333 eV    ::
         ::.................................................::
         :: SCC energy               -13.867752875725 Eh    ::
         :: -> isotropic ES            0.002786556807 Eh    ::
         :: -> anisotropic ES          0.005231091658 Eh    ::
         :: -> anisotropic XC          0.008956745026 Eh    ::
         :: -> dispersion             -0.006301836441 Eh    ::
         :: repulsion energy           0.204401087412 Eh    ::
         :: add. restraining           0.000000000000 Eh    ::
         :: total charge              -0.000000000000 e     ::
         :::::::::::::::::::::::::::::::::::::::::::::::::::::

      ----------------------------------------------------------- 
     |                   =====================                   |
     |                        A N C O P T                        |
     |                   =====================                   |
     |               Approximate Normal Coordinate               |
     |                Rational Function Optimizer                |
      ----------------------------------------------------------- 

          ...................................................
          :                      SETUP                      :
          :.................................................:
          :   optimization level            normal          :
          :   max. optcycles                   200          :
          :   ANC micro-cycles                  20          :
          :   degrees of freedom                36          :
          :.................................................:
          :   RF solver                   davidson          :
          :   write xtbopt.log                true          :
          :   linear?                        false          :
          :   energy convergence         0.5000000E-05 Eh   :
          :   grad. convergence          0.1000000E-02 Eh/α :
          :   maxmium RF displ.          2.0000000          :
          :   Hlow (freq-cutoff)         0.2000000E-01      :
          :   Hmax (freq-cutoff)         5.0000000          :
          :   S6 in model hess.         70.0000000          :
          ...................................................

generating ANC from model Hessian ...
Using Lindh-Hessian (1995)
 Shifting diagonal of input Hessian by   1.364201479948237E-002
 Lowest  eigenvalues of input Hessian
    0.000000    0.000000    0.000000    0.000000    0.000000    0.000000
    0.020000    0.025537    0.025790    0.032093    0.036390    0.057532
    0.061991    0.065598    0.066301    0.068529    0.070804    0.075331
 Highest eigenvalues
    1.114730    1.135880    1.146002    1.201998    1.259628    1.284283
 

........................................................................
.............................. CYCLE    1 ..............................
........................................................................

 iter      E             dE          RMSdq      gap      omega  full diag
   1    -13.8677529 -0.138678E+02  0.172E-05   13.95       0.0  T
   2    -13.8677529 -0.897060E-12  0.759E-06   13.95    3519.3  T
   3    -13.8677529 -0.888178E-14  0.283E-06   13.95    9430.0  T
     SCC iter.                  ...        0 min,  0.001 sec
     gradient                   ...        0 min,  0.001 sec
 * total energy  :   -13.6633444 Eh     change       -0.5748291E-11 Eh
   gradient norm :     0.0195802 Eh/α   predicted     0.0000000E+00 (-100.00%)
   displ. norm   :     0.1118340 α      lambda       -0.1170815E-02
   maximum displ.:     0.0829860 α      in ANC's #10, #14, #12, ...

........................................................................
.............................. CYCLE    2 ..............................
........................................................................

 iter      E             dE          RMSdq      gap      omega  full diag
   1    -13.8725723 -0.138726E+02  0.139E-01   14.22       0.0  T
   2    -13.8725748 -0.249617E-05  0.798E-02   14.23       1.0  T
   3    -13.8725750 -0.245071E-06  0.497E-03   14.23       5.4  T
   4    -13.8725750 -0.220439E-07  0.114E-03   14.23      23.5  T
   5    -13.8725750 -0.805246E-09  0.604E-04   14.23      44.3  T
   6    -13.8725750 -0.123320E-09  0.609E-05   14.23     439.1  T
     SCC iter.                  ...        0 min,  0.001 sec
     gradient                   ...        0 min,  0.001 sec
 * total energy  :   -13.6640708 Eh     change       -0.7263546E-03 Eh
   gradient norm :     0.0087920 Eh/α   predicted    -0.5927278E-03 ( -18.40%)
   displ. norm   :     0.0410290 α      lambda       -0.1508781E-03
   maximum displ.:     0.0214747 α      in ANC's #3, #10, #14, ...

........................................................................
.............................. CYCLE    3 ..............................
........................................................................

 iter      E             dE          RMSdq      gap      omega  full diag
   1    -13.8749446 -0.138749E+02  0.435E-02   14.27       0.0  T
   2    -13.8749458 -0.124603E-05  0.244E-02   14.27       1.1  T
   3    -13.8749459 -0.254239E-07  0.462E-03   14.27       5.8  T
   4    -13.8749459 -0.847626E-08  0.496E-04   14.27      53.9  T
   5    -13.8749459 -0.501577E-09  0.274E-04   14.27      97.5  T
     SCC iter.                  ...        0 min,  0.001 sec
     gradient                   ...        0 min,  0.001 sec
 * total energy  :   -13.6641554 Eh     change       -0.8465315E-04 Eh
   gradient norm :     0.0020306 Eh/α   predicted    -0.7556440E-04 ( -10.74%)
   displ. norm   :     0.0180957 α      lambda       -0.1237192E-04
   maximum displ.:     0.0138514 α      in ANC's #3, #4, #1, ...

........................................................................
.............................. CYCLE    4 ..............................
........................................................................

 iter      E             dE          RMSdq      gap      omega  full diag
   1    -13.8751855 -0.138752E+02  0.632E-03   14.27       0.0  T
   2    -13.8751856 -0.578062E-07  0.377E-03   14.27       7.1  T
   3    -13.8751856 -0.733396E-09  0.110E-03   14.27      24.3  T
   4    -13.8751856 -0.193280E-09  0.121E-04   14.27     221.3  T
   5    -13.8751856 -0.329266E-10  0.541E-05   14.27     494.3  T
     SCC iter.                  ...        0 min,  0.003 sec
     gradient                   ...        0 min,  0.001 sec
 * total energy  :   -13.6641643 Eh     change       -0.8844275E-05 Eh
   gradient norm :     0.0004790 Eh/α   predicted    -0.6187648E-05 ( -30.04%)
   displ. norm   :     0.0416327 α      lambda       -0.9100133E-05
   maximum displ.:     0.0306771 α      in ANC's #3, #4, #1, ...

........................................................................
.............................. CYCLE    5 ..............................
........................................................................

 iter      E             dE          RMSdq      gap      omega  full diag
   1    -13.8751280 -0.138751E+02  0.124E-02   14.25       0.0  T
   2    -13.8751280 -0.336106E-07  0.754E-03   14.25       3.5  T
   3    -13.8751280 -0.312907E-08  0.578E-04   14.25      46.2  T
   4    -13.8751280 -0.708368E-09  0.239E-04   14.25     112.0  T
     SCC iter.                  ...        0 min,  0.001 sec
     gradient                   ...        0 min,  0.001 sec
 * total energy  :   -13.6641716 Eh     change       -0.7366026E-05 Eh
   gradient norm :     0.0016913 Eh/α   predicted    -0.4553875E-05 ( -38.18%)
   displ. norm   :     0.0209379 α      lambda       -0.3585430E-05
   maximum displ.:     0.0147880 α      in ANC's #4, #3, #1, ...

........................................................................
.............................. CYCLE    6 ..............................
........................................................................

 iter      E             dE          RMSdq      gap      omega  full diag
   1    -13.8749819 -0.138750E+02  0.684E-03   14.25       0.0  T
   2    -13.8749819 -0.178904E-07  0.407E-03   14.25       6.6  T
   3    -13.8749819 -0.618121E-09  0.464E-04   14.25      57.6  T
   4    -13.8749819 -0.141583E-09  0.107E-04   14.25     250.3  T
     SCC iter.                  ...        0 min,  0.001 sec
     gradient                   ...        0 min,  0.001 sec
 * total energy  :   -13.6641756 Eh     change       -0.3995684E-05 Eh
   gradient norm :     0.0008251 Eh/α   predicted    -0.1794067E-05 ( -55.10%)
   displ. norm   :     0.0216887 α      lambda       -0.2121454E-05
   maximum displ.:     0.0176798 α      in ANC's #4, #3, #1, ...

   *** GEOMETRY OPTIMIZATION CONVERGED AFTER 6 ITERATIONS ***

------------------------------------------------------------------------
 total energy gain   :        -0.0008312 Eh       -0.5216 kcal/mol
 total RMSD          :         0.0499524 a0        0.0264 Å
 total power (kW/mol):        -0.3637252 (step) -100.7645 (real)
------------------------------------------------------------------------

 ANCopt (total)                0 d,  0 h,  0 min,  0.022 sec
 optimizer setup                ...        0 min,  0.001 sec (  5.883%)
 model hessian                  ...        0 min,  0.004 sec ( 16.150%)
 ANC generation                 ...        0 min,  0.000 sec (  2.199%)
 coordinate transformation      ...        0 min,  0.000 sec (  0.248%)
 single point calculation       ...        0 min,  0.013 sec ( 60.643%)
 optimization log               ...        0 min,  0.000 sec (  1.610%)
 hessian update                 ...        0 min,  0.000 sec (  0.204%)
 rational function              ...        0 min,  0.001 sec (  4.393%)

================
 final structure:
================
14
 xtb: 6.6.1 (8d0f1dd)
C           -1.57041063646498        0.03413551714487        0.56773002613742
C           -0.67270344266753       -0.36393090018553       -0.59895931458021
C            0.67268087774749        0.36318225907565       -0.59939263410273
C            1.57033192943932       -0.03342843378389        0.56782854969714
H           -2.53722392836980       -0.45725675528680        0.48397194522078
H           -1.12707058557073       -0.25281995122677        1.51747506598561
H           -1.73206533798214        1.11005246717338        0.57309547354108
H           -0.49848851231484       -1.44198829210013       -0.57075019635376
H           -1.19096933827011       -0.13780761558913       -1.53401772475546
H            0.49846257139903        1.44127470387752       -0.57254784070425
H            1.19098853027722        0.13588385674374       -1.53414245408331
H            1.73241092605140       -1.10927343655870        0.57423023134593
H            2.53697094455714        0.45827469170267        0.48379044577929
H            1.12668500216853        0.25422988901313        1.51722042687246
           -------------------------------------------------
          |                Final Singlepoint                |
           -------------------------------------------------

          ...................................................
          :                      SETUP                      :
          :.................................................:
          :  # basis functions                  26          :
          :  # atomic orbitals                  26          :
          :  # shells                           18          :
          :  # electrons                        26          :
          :  max. iterations                   250          :
          :  Hamiltonian                  GFN2-xTB          :
          :  restarted?                      false          :
          :  GBSA solvation                  false          :
          :  PC potential                    false          :
          :  electronic temp.          300.0000000     K    :
          :  accuracy                    1.0000000          :
          :  -> integral cutoff          0.2500000E+02      :
          :  -> integral neglect         0.1000000E-07      :
          :  -> SCF convergence          0.1000000E-05 Eh   :
          :  -> wf. convergence          0.1000000E-03 e    :
          :  Broyden damping             0.4000000          :
          ...................................................

 iter      E             dE          RMSdq      gap      omega  full diag
   1    -13.8749819 -0.138750E+02  0.458E-05   14.25       0.0  T
   2    -13.8749819 -0.180300E-11  0.243E-05   14.25    1102.0  T
   3    -13.8749819 -0.181188E-12  0.580E-06   14.25    4605.3  T

   *** convergence criteria satisfied after 3 iterations ***

         #    Occupation            Energy/Eh            Energy/eV
      -------------------------------------------------------------
         1        2.0000           -0.6177311             -16.8093
       ...           ...                  ...                  ...
         7        2.0000           -0.4849722             -13.1968
         8        2.0000           -0.4663389             -12.6897
         9        2.0000           -0.4618500             -12.5676
        10        2.0000           -0.4481460             -12.1947
        11        2.0000           -0.4258874             -11.5890
        12        2.0000           -0.4234707             -11.5232
        13        2.0000           -0.4221705             -11.4878 (HOMO)
        14                          0.1014208               2.7598 (LUMO)
        15                          0.1108360               3.0160
        16                          0.1372066               3.7336
        17                          0.1488836               4.0513
        18                          0.1498607               4.0779
       ...                                ...                  ...
        26                          0.3000956               8.1660
      -------------------------------------------------------------
                  HL-Gap            0.5235913 Eh           14.2476 eV
             Fermi-level           -0.1603748 Eh           -4.3640 eV

 SCC (total)                   0 d,  0 h,  0 min,  0.003 sec
 SCC setup                      ...        0 min,  0.001 sec ( 25.353%)
 Dispersion                     ...        0 min,  0.000 sec (  0.801%)
 classical contributions        ...        0 min,  0.000 sec (  0.290%)
 integral evaluation            ...        0 min,  0.000 sec (  6.563%)
 iterations                     ...        0 min,  0.001 sec ( 23.659%)
 molecular gradient             ...        0 min,  0.001 sec ( 16.294%)
 printout                       ...        0 min,  0.001 sec ( 26.093%)

         :::::::::::::::::::::::::::::::::::::::::::::::::::::
         ::                     SUMMARY                     ::
         :::::::::::::::::::::::::::::::::::::::::::::::::::::
         :: total energy             -13.664175631727 Eh    ::
         :: gradient norm              0.000825069940 Eh/a0 ::
         :: HOMO-LUMO gap             14.247643215098 eV    ::
         ::.................................................::
         :: SCC energy               -13.874981922797 Eh    ::
         :: -> isotropic ES            0.002975503720 Eh    ::
         :: -> anisotropic ES          0.004973525649 Eh    ::
         :: -> anisotropic XC          0.008995517879 Eh    ::
         :: -> dispersion             -0.006301223046 Eh    ::
         :: repulsion energy           0.210799180823 Eh    ::
         :: add. restraining           0.000000000000 Eh    ::
         :: total charge               0.000000000000 e     ::
         :::::::::::::::::::::::::::::::::::::::::::::::::::::

           ------------------------------------------------- 
          |                Numerical Hessian                |
           ------------------------------------------------- 
step length          :   0.00500
SCC accuracy         :   0.30000
Hessian scale factor :   1.00000
frozen atoms in %    :   0.00000    0
RMS gradient         :   0.00083
estimated CPU  time      0.02 min
estimated wall time      0.00 min

writing file <hessian>.

 projected vibrational frequencies (cm⁻¹)
eigval :       -0.00    -0.00    -0.00    -0.00     0.00     0.00
eigval :       96.22   200.60   258.09   322.40   432.10   787.82
eigval :      831.35   884.65   981.45  1017.33  1020.65  1138.36
eigval :     1145.36  1188.26  1256.27  1276.91  1350.23  1356.61
eigval :     1414.62  1415.06  1490.91  1493.80  1503.43  1504.90
eigval :     1508.21  1517.01  2962.88  2965.15  2981.18  2981.30
eigval :     3029.38  3031.86  3034.07  3034.21  3044.11  3050.27
           -------------------------------------------------
          |                Property Printout                |
           -------------------------------------------------

    * Orbital Energies and Occupations

         #    Occupation            Energy/Eh            Energy/eV
      -------------------------------------------------------------
         1        2.0000           -0.6177311             -16.8093
         2        2.0000           -0.5960145             -16.2184
         3        2.0000           -0.5731467             -15.5961
         4        2.0000           -0.5474555             -14.8970
         5        2.0000           -0.5064192             -13.7804
         6        2.0000           -0.5058873             -13.7659
         7        2.0000           -0.4849722             -13.1968
         8        2.0000           -0.4663389             -12.6897
         9        2.0000           -0.4618500             -12.5676
        10        2.0000           -0.4481460             -12.1947
        11        2.0000           -0.4258874             -11.5890
        12        2.0000           -0.4234707             -11.5232
        13        2.0000           -0.4221705             -11.4878 (HOMO)
        14                          0.1014208               2.7598 (LUMO)
        15                          0.1108360               3.0160
        16                          0.1372065               3.7336
        17                          0.1488836               4.0513
        18                          0.1498606               4.0779
        19                          0.1575719               4.2877
        20                          0.2026912               5.5155
        21                          0.2065686               5.6210
        22                          0.2348387               6.3903
        23                          0.2486975               6.7674
        24                          0.2784525               7.5771
       ...                                ...                  ...
        26                          0.3000956               8.1660
      -------------------------------------------------------------
                  HL-Gap            0.5235912 Eh           14.2476 eV
             Fermi-level           -0.1603749 Eh           -4.3640 eV

     #   Z          covCN         q      C6AA      α(0)
     1   6 C        3.751    -0.101    22.494     6.764
     2   6 C        3.800    -0.053    21.519     6.605
     3   6 C        3.800    -0.053    21.519     6.605
     4   6 C        3.751    -0.101    22.494     6.764
     5   1 H        0.925     0.030     2.585     2.514
     6   1 H        0.925     0.035     2.511     2.478
     7   1 H        0.925     0.033     2.550     2.497
     8   1 H        0.924     0.030     2.592     2.518
     9   1 H        0.924     0.026     2.643     2.542
    10   1 H        0.924     0.030     2.592     2.518
    11   1 H        0.924     0.026     2.643     2.542
    12   1 H        0.925     0.033     2.551     2.497
    13   1 H        0.925     0.030     2.585     2.514
    14   1 H        0.925     0.035     2.511     2.478

 Mol. C6AA /au·bohr⁶  :       1208.155219
 Mol. C8AA /au·bohr⁸  :      24486.893720
 Mol. α(0) /au        :         51.835880


Wiberg/Mayer (AO) data.
largest (>0.10) Wiberg bond orders for each atom

 ---------------------------------------------------------------------------
     #   Z sym  total        # sym  WBO       # sym  WBO       # sym  WBO
 ---------------------------------------------------------------------------
     1   6 C    3.997 --     2 C    1.020     7 H    0.988     5 H    0.988
                             6 H    0.986
     2   6 C    3.998 --     1 C    1.020     3 C    1.008     9 H    0.979
                             8 H    0.978
     3   6 C    3.998 --     4 C    1.020     2 C    1.008    11 H    0.979
                            10 H    0.978
     4   6 C    3.997 --     3 C    1.020    12 H    0.988    13 H    0.988
                            14 H    0.986
     5   1 H    0.999 --     1 C    0.988
     6   1 H    0.999 --     1 C    0.986
     7   1 H    0.999 --     1 C    0.988
     8   1 H    0.999 --     2 C    0.978
     9   1 H    0.999 --     2 C    0.979
    10   1 H    0.999 --     3 C    0.978
    11   1 H    0.999 --     3 C    0.979
    12   1 H    0.999 --     4 C    0.988
    13   1 H    0.999 --     4 C    0.988
    14   1 H    0.999 --     4 C    0.986
 ---------------------------------------------------------------------------

Topologies differ in total number of bonds
Writing topology from bond orders to xtbtopo.mol

molecular dipole:
                 x           y           z       tot (Debye)
 q only:       -0.000       0.000       0.015
   full:       -0.000       0.000       0.012       0.030
molecular quadrupole (traceless):
                xx          xy          yy          xz          yz          zz
 q only:       -0.027       0.006      -0.068      -0.000       0.000       0.095
  q+dip:       -0.483      -0.113       0.625       0.000      -0.000      -0.143
   full:       -0.229      -0.049       0.279      -0.000      -0.000      -0.050

           -------------------------------------------------
          |                Geometry Summary                 |
           -------------------------------------------------

      molecular mass/u    :       58.1223511
   center of mass at/Å    :       -0.0000261       0.0000013       0.0032962
  moments of inertia/u·Å² :        0.3766504E+02   0.1055177E+03   0.1229464E+03
rotational constants/cm⁻¹ :        0.4475671E+00   0.1597611E+00   0.1371137E+00

 * 13 selected distances

     #   Z          #   Z                                           value/Å
     1   6 C        2   6 C                                       1.5249589
     2   6 C        3   6 C                                       1.5292983 (max)
     3   6 C        4   6 C                                       1.5249535
     1   6 C        5   1 H                                       1.0877545
     1   6 C        6   1 H                                       1.0866967 (min)
     1   6 C        7   1 H                                       1.0880067
     2   6 C        8   1 H                                       1.0924077
     2   6 C        9   1 H                                       1.0927331
     3   6 C       10   1 H                                       1.0924084
     3   6 C       11   1 H                                       1.0927327
     4   6 C       12   1 H                                       1.0880043
     4   6 C       13   1 H                                       1.0877617
     4   6 C       14   1 H                                       1.0866992

 * 2 distinct bonds (by element types)

   Z      Z             #   av. dist./Å        max./Å        min./Å
   1 H    6 C          10     1.0895205     1.0927331     1.0866967
   6 C    6 C           3     1.5264035     1.5292983     1.5249535

           -------------------------------------------------
          |               Frequency Printout                |
           -------------------------------------------------
 projected vibrational frequencies (cm⁻¹)
eigval :       -0.00    -0.00    -0.00    -0.00     0.00     0.00
eigval :       96.22   200.60   258.09   322.40   432.10   787.82
eigval :      831.35   884.65   981.45  1017.33  1020.65  1138.36
eigval :     1145.36  1188.26  1256.27  1276.91  1350.23  1356.61
eigval :     1414.62  1415.06  1490.91  1493.80  1503.43  1504.90
eigval :     1508.21  1517.01  2962.88  2965.15  2981.18  2981.30
eigval :     3029.38  3031.86  3034.07  3034.21  3044.11  3050.27
 reduced masses (amu)
   1:  9.50   2:  8.76   3:  7.98   4:  9.52   5:  9.43   6:  9.18   7:  4.96   8:  1.45
   9:  4.01  10:  6.78  11:  7.22  12:  2.50  13:  3.13  14:  6.85  15:  2.47  16:  4.42
  17:  6.95  18:  7.46  19:  6.78  20:  6.57  21:  3.18  22:  2.34  23:  4.08  24:  5.13
  25:  3.34  26:  3.10  27:  1.87  28:  1.72  29:  1.57  30:  1.84  31:  1.54  32:  1.55
  33:  1.93  34:  1.88  35:  1.60  36:  1.49  37:  1.90  38:  1.93  39:  1.77  40:  1.70
  41:  1.46  42:  1.55
 IR intensities (km·mol⁻¹)
   1:  0.00   2:  0.00   3:  0.00   4:  0.00   5:  0.00   6:  0.00   7:  0.01   8:  0.07
   9:  0.05  10:  0.24  11:  1.11  12:  9.62  13:  4.04  14:  0.02  15:  4.08  16:  1.04
  17:  5.60  18:  0.33  19:  3.08  20:  0.03  21:  0.69  22:  0.42  23:  3.87  24:  0.70
  25:  3.14  26:  0.65  27:  0.27  28:  0.41  29:  2.90  30:  0.51  31:  3.04  32:  0.49
  33: 19.52  34: 36.06  35: 57.09  36: 52.70  37:  0.53  38:111.15  39: 85.17  40:  5.34
  41:  5.32  42: 64.77
 Raman intensities (amu)
   1:  0.00   2:  0.00   3:  0.00   4:  0.00   5:  0.00   6:  0.00   7:  0.00   8:  0.00
   9:  0.00  10:  0.00  11:  0.00  12:  0.00  13:  0.00  14:  0.00  15:  0.00  16:  0.00
  17:  0.00  18:  0.00  19:  0.00  20:  0.00  21:  0.00  22:  0.00  23:  0.00  24:  0.00
  25:  0.00  26:  0.00  27:  0.00  28:  0.00  29:  0.00  30:  0.00  31:  0.00  32:  0.00
  33:  0.00  34:  0.00  35:  0.00  36:  0.00  37:  0.00  38:  0.00  39:  0.00  40:  0.00
  41:  0.00  42:  0.00
 output can be read by thermo (or use thermo option).
 writing <g98.out> molden fake output.
 recommended (thermochemical) frequency scaling factor: 1.0
           -------------------------------------------------
          |             Thermodynamic Functions             |
           -------------------------------------------------

Molecule has the following symmetry elements: (C2) 
It seems to be the C2 point group
c2  symmetry found (for desy threshold:  0.10E+00) used in thermo

          ...................................................
          :                      SETUP                      :
          :.................................................:
          :  # frequencies                          36      :
          :  # imaginary freq.                       0      :
          :  linear?                             false      :
          :  only rotor calc.                    false      :
          :  symmetry                               c2      :
          :  rotational number                       2      :
          :  scaling factor                  1.0000000      :
          :  rotor cutoff                   50.0000000 cm⁻¹ :
          :  imag. cutoff                  -20.0000000 cm⁻¹ :
          :.................................................:

    mode    ω/cm⁻¹     T·S(HO)/kcal·mol⁻¹    T·S(FR)/kcal·mol⁻¹   T·S(vib)
   ------------------------------------------------------------------------
       1     96.22    -1.05231 ( 93.20%)    -0.86204 (  6.80%)    -1.03938
       2    200.60    -0.63435 ( 99.62%)    -0.64471 (  0.38%)    -0.63439
       3    258.09    -0.49930 ( 99.86%)    -0.57011 (  0.14%)    -0.49940
   ------------------------------------------------------------------------

   temp. (K)  partition function   enthalpy   heat capacity  entropy
                                   cal/mol     cal/K/mol   cal/K/mol   J/K/mol
 298.15  VIB   9.78                 1827.942     13.337     10.621
         ROT  0.267E+05              888.752      2.981     23.236
         INT  0.261E+06             2716.695     16.318     33.857
         TR   0.429E+27             1481.254      4.968     38.083
         TOT                        4197.9486    21.2863    71.9402   300.9976

       T/K    H(0)-H(T)+PV         H(T)/Eh          T*S/Eh         G(T)/Eh
   ------------------------------------------------------------------------
    298.15    0.668986E-02    0.137700E+00    0.341811E-01    0.103519E+00
   ------------------------------------------------------------------------

         :::::::::::::::::::::::::::::::::::::::::::::::::::::
         ::                  THERMODYNAMIC                  ::
         :::::::::::::::::::::::::::::::::::::::::::::::::::::
         :: total free energy         -13.560656238209 Eh   ::
         ::.................................................::
         :: total energy              -13.664175631728 Eh   ::
         :: zero point energy           0.131010625174 Eh   ::
         :: G(RRHO) w/o ZPVE           -0.027491231655 Eh   ::
         :: G(RRHO) contrib.            0.103519393519 Eh   ::
         :::::::::::::::::::::::::::::::::::::::::::::::::::::
 
 normal mode %tage of torsion character
   1:  0.00   2:  0.00   3:  0.00   4:  0.00   5:  0.00   6:  0.00   7:  0.59   8:  0.90
   9:  0.71  10:  0.58  11:  0.21  12:  0.55  13:  0.43  14:  0.26  15:  0.15  16:  0.12
  17:  0.06  18:  0.24  19:  0.28  20:  0.42  21:  0.22  22:  0.07  23:  0.10  24:  0.14
  25:  0.00  26:  0.00  27:  0.65  28:  0.74  29:  0.90  30:  0.75  31:  0.92  32:  0.92
  33:  0.34  34:  0.20  35:  0.02  36:  0.01  37:  0.05  38:  0.04  39:  0.03  40:  0.03
  41:  0.01  42:  0.03
 recommended # of modes for mode following           4

optimized geometry written to: xtbopt.xyz


           -------------------------------------------------
          | TOTAL ENERGY              -13.664175631728 Eh   |
          | TOTAL ENTHALPY            -13.526475149587 Eh   |
          | TOTAL FREE ENERGY         -13.560656238209 Eh   |
          | GRADIENT NORM               0.000825066940 Eh/α |
          | HOMO-LUMO GAP              14.247642813272 eV   |
           -------------------------------------------------

------------------------------------------------------------------------
 * finished run on 2024/04/23 at 12:09:57.761     
------------------------------------------------------------------------
 total:
 * wall-time:     0 d,  0 h,  0 min,  0.475 sec
 *  cpu-time:     0 d,  0 h,  0 min,  1.379 sec
 * ratio c/w:     2.907 speedup
 SCF:
 * wall-time:     0 d,  0 h,  0 min,  0.151 sec
 *  cpu-time:     0 d,  0 h,  0 min,  0.415 sec
 * ratio c/w:     2.742 speedup
 ANC optimizer:
 * wall-time:     0 d,  0 h,  0 min,  0.033 sec
 *  cpu-time:     0 d,  0 h,  0 min,  0.116 sec
 * ratio c/w:     3.499 speedup
 analytical hessian:
 * wall-time:     0 d,  0 h,  0 min,  0.118 sec
 *  cpu-time:     0 d,  0 h,  0 min,  0.423 sec
 * ratio c/w:     3.587 speedup

