14
 energy: -13.664175631727 gnorm: 0.000825069940 xtb: 6.6.1 (8d0f1dd)
C           -1.57040847594411        0.03414473066066        0.56773544832263
C           -0.67270743895763       -0.36392842328326       -0.59895633121841
C            0.67268068706935        0.36317769079474       -0.59939561607001
C            1.57033373647830       -0.03343566498474        0.56782312654394
H           -2.53722463312234       -0.45724262572486        0.48398159986296
H           -1.12706661230793       -0.25281140142924        1.51747944144664
H           -1.73205752524766        1.11006253645919        0.57309958217828
H           -0.49849805482847       -1.44198667813500       -0.57074593955190
H           -1.19097541455071       -0.13780405702413       -1.53401332695686
H            0.49846811930286        1.44127109463762       -0.57255209616141
H            1.19098388655759        0.13587494318465       -1.53414684856794
H            1.73240712232862       -1.10928150521388        0.57422612013400
H            2.53697503277645        0.45826225251166        0.48378079023618
H            1.12669162940151        0.25422663772184        1.51721605027346
