14
 energy: -13.663344418019 gnorm: 0.019580184299 xtb: 6.6.1 (8d0f1dd)
C           -1.56354300000000        0.03130200000000        0.56705800000000
C           -0.67795100000000       -0.35815200000000       -0.60695500000000
C            0.67797100000000        0.35724700000000       -0.60739900000000
C            1.56356000000000       -0.03044600000000        0.56709600000000
H           -2.53910400000000       -0.45965500000000        0.52530700000000
H           -1.10762600000000       -0.23870900000000        1.52140200000000
H           -1.74078500000000        1.10871300000000        0.58753300000000
H           -0.51277700000000       -1.44409500000000       -0.60649000000000
H           -1.20565700000000       -0.15103400000000       -1.54919300000000
H            0.51260200000000        1.44319200000000       -0.60817100000000
H            1.20588200000000        0.14905900000000       -1.54924900000000
H            1.74163700000000       -1.10772600000000        0.58886300000000
H            2.53874900000000        0.46135100000000        0.52466900000000
H            1.10664100000000        0.23948100000000        1.52106100000000
14
 energy: -13.664070772578 gnorm: 0.008791965631 xtb: 6.6.1 (8d0f1dd)
C           -1.56079925079720        0.03370252215808        0.56820226702133
C           -0.67439963641385       -0.36089968936413       -0.60252350207154
C            0.67435150062110        0.36001613770310       -0.60295814939901
C            1.56077231834822       -0.03293636154844        0.56829616201499
H           -2.52839287083174       -0.46349034095491        0.50512955446088
H           -1.10580301387731       -0.24486409333339        1.51727249537466
H           -1.73375692789579        1.10994514901933        0.57671270430989
H           -0.50588965726725       -1.44332465275900       -0.58751212819403
H           -1.19631316944454       -0.13273806420953       -1.53874792185254
H            0.50572371308360        1.44245182754762       -0.58927961561943
H            1.19632810237609        0.13076198997849       -1.53886696622901
H            1.73464448415957       -1.10905034839516        0.57784148217455
H            2.52793393115718        0.46501037151352        0.50495955315836
H            1.10519947678192        0.24594355264444        1.51700606485090
14
 energy: -13.664155425728 gnorm: 0.002030574202 xtb: 6.6.1 (8d0f1dd)
C           -1.56341267575970        0.03388140699837        0.56917604535739
C           -0.67391662698183       -0.36105629321213       -0.60188199502780
C            0.67386061227364        0.36020266483998       -0.60231785368863
C            1.56335839262032       -0.03314266279593        0.56927901847196
H           -2.52829134408595       -0.46374217738180        0.49680557919930
H           -1.11001200486699       -0.24728256972472        1.51616392151240
H           -1.73201119760939        1.10907020534074        0.57320355944519
H           -0.50268641096471       -1.44033380134632       -0.57985536901072
H           -1.19373742610418       -0.12836148498667       -1.53507656724872
H            0.50256353292176        1.43949787962291       -0.58165964173660
H            1.19372293143306        0.12636969107326       -1.53520575034043
H            1.73278330170008       -1.10820558789678        0.57423415484475
H            2.52785904706092        0.46514878241376        0.49675063738693
H            1.10951886836299        0.24848194705532        1.51591626083498
14
 energy: -13.664164270003 gnorm: 0.000478960370 xtb: 6.6.1 (8d0f1dd)
C           -1.56540794811086        0.03405758160819        0.56914601755729
C           -0.67365168071881       -0.36198527148992       -0.60147750400417
C            0.67360555824773        0.36115992303238       -0.60191676956122
C            1.56534403812874       -0.03332672264845        0.56924552825365
H           -2.53023555101086       -0.46252314449667        0.49367331905845
H           -1.11401888843450       -0.24842327875256        1.51635974753483
H           -1.73232531099256        1.10920751774599        0.57308238568494
H           -0.50195001530730       -1.44064383523954       -0.57791407777693
H           -1.19319754829112       -0.12996206251849       -1.53431477388770
H            0.50185578865283        1.43984032854342       -0.57973308137467
H            1.19319658836247        0.12797480755589       -1.53444097500752
H            1.73299825867896       -1.10835743435191        0.57411656780567
H            2.52984621901809        0.46385250372433        0.49359515144806
H            1.11353949177719        0.24965708728734        1.51611046426932
14
 energy: -13.664171636029 gnorm: 0.001691321456 xtb: 6.6.1 (8d0f1dd)
C           -1.56939557552571        0.03412343997812        0.56856064490282
C           -0.67318058496768       -0.36333711610035       -0.60013019233408
C            0.67315393805350        0.36256941199940       -0.60057013516922
C            1.56931825528756       -0.03340653546838        0.56865529843675
H           -2.53523754097705       -0.45926558180163        0.48712574602971
H           -1.12314312147498       -0.25126471245816        1.51725395884845
H           -1.73273021405125        1.10963859652776        0.57309247210676
H           -0.50004477688288       -1.44132448843431       -0.57347764506775
H           -1.19212773810319       -0.13487969928820       -1.53385329536310
H            0.50000620549284        1.44058820600707       -0.57530319670180
H            1.19214695129161        0.13292187547471       -1.53397563409926
H            1.73318127634318       -1.10882940028866        0.57417426483392
H            2.53494416951449        0.46039908666260        0.48698005353338
H            1.12270775599958        0.25259491719004        1.51699966004343
14
 energy: -13.664175631713 gnorm: 0.000825066480 xtb: 6.6.1 (8d0f1dd)
C           -1.57041063646498        0.03413551714487        0.56773002613742
C           -0.67270344266753       -0.36393090018553       -0.59895931458021
C            0.67268087774749        0.36318225907565       -0.59939263410273
C            1.57033192943932       -0.03342843378389        0.56782854969714
H           -2.53722392836980       -0.45725675528680        0.48397194522078
H           -1.12707058557073       -0.25281995122677        1.51747506598561
H           -1.73206533798214        1.11005246717338        0.57309547354108
H           -0.49848851231484       -1.44198829210013       -0.57075019635376
H           -1.19096933827011       -0.13780761558913       -1.53401772475546
H            0.49846257139903        1.44127470387752       -0.57254784070425
H            1.19098853027722        0.13588385674374       -1.53414245408331
H            1.73241092605140       -1.10927343655870        0.57423023134593
H            2.53697094455714        0.45827469170267        0.48379044577929
H            1.12668500216853        0.25422988901313        1.51722042687246
