 Entering Gaussian System
 *********************************************
 Gaussian 98:
 frequency output generated by the xtb code
 *********************************************
                         Standard orientation:
 --------------------------------------------------------------------
  Center     Atomic     Atomic              Coordinates (Angstroms)
  Number     Number      Type              X           Y           Z
 --------------------------------------------------------------------
    1          6             0        3.182819    0.222497   -0.000896
    2          6             0        1.868383   -0.548618    0.000544
    3          6             0        0.659716    0.384403   -0.001261
    4          6             0       -0.659614   -0.383716    0.001688
    5          6             0       -1.868692    0.548761    0.002190
    6          6             0       -3.182553   -0.223341   -0.002218
    7          1             0        3.253719    0.857371    0.879662
    8          1             0        3.253628    0.854347   -0.883631
    9          1             0        4.028175   -0.461761    0.000246
   10          1             0        1.826149   -1.194036   -0.879724
   11          1             0        1.826121   -1.190625    0.883303
   12          1             0        0.701705    1.026186   -0.884530
   13          1             0        0.702881    1.031079    0.878387
   14          1             0       -0.700807   -1.026714    0.884119
   15          1             0       -0.703268   -1.029230   -0.878792
   16          1             0       -1.828292    1.190055    0.885547
   17          1             0       -1.825439    1.194919   -0.877484
   18          1             0       -3.251783   -0.863595    0.874575
   19          1             0       -4.028502    0.460152    0.004090
   20          1             0       -3.253936   -0.849925   -0.888654
 --------------------------------------------------------------------
     1 basis functions        1 primitive gaussians
     1 alpha electrons        1 beta electrons
 
 Harmonic frequencies (cm**-1), IR intensities (km*mol⁻¹),
 Raman scattering activities (A**4/amu), Raman depolarization ratios,
 reduced masses (AMU), force constants (mDyne/A) and normal coordinates:
                      1                      2                      3
                        a                      a                      a 
 Frequencies --    67.8733                92.6008               135.0375
 Red. masses --     7.7819                 5.5953                 8.5343
 Frc consts  --     0.0000                 0.0000                 0.0000
 IR Inten    --     0.0054                 0.0022                 0.1202
 Raman Activ --     0.0000                 0.0000                 0.0000
 Depolar     --     0.0000                 0.0000                 0.0000
 Atom AN      X      Y      Z        X      Y      Z        X      Y      Z
   1   6     0.00   0.00   0.44     0.00  -0.00  -0.08     0.11  -0.38  -0.07
   2   6     0.00  -0.00  -0.21    -0.00  -0.00  -0.27    -0.16   0.08   0.09
   3   6     0.00  -0.00  -0.26     0.00   0.00   0.36     0.04   0.35   0.14
   4   6     0.00   0.00  -0.26     0.00   0.00   0.36     0.04   0.35  -0.14
   5   6     0.00   0.00  -0.21    -0.00   0.00  -0.27    -0.16   0.08  -0.08
   6   6    -0.00  -0.00   0.44     0.00  -0.00  -0.08     0.11  -0.38   0.07
   7   1    -0.07  -0.10   0.20     0.06  -0.16   0.09     0.12  -0.09  -0.04
   8   1     0.07   0.10   0.20    -0.06   0.16   0.09     0.08  -0.14  -0.04
   9   1     0.00   0.00   0.12    -0.00  -0.00  -0.20    -0.04  -0.20  -0.02
  10   1     0.08   0.08  -0.12    -0.04   0.13  -0.17    -0.12   0.01   0.04
  11   1    -0.08  -0.08  -0.12     0.04  -0.13  -0.17    -0.08   0.04   0.03
  12   1     0.01   0.00  -0.07    -0.06   0.09   0.16     0.06   0.14   0.07
  13   1    -0.01  -0.00  -0.07     0.06  -0.09   0.17     0.01   0.05   0.08
  14   1     0.01   0.00  -0.07    -0.06   0.09   0.17     0.01   0.05  -0.08
  15   1    -0.01  -0.00  -0.07     0.06  -0.09   0.17     0.06   0.14  -0.07
  16   1     0.08   0.08  -0.12    -0.04   0.13  -0.17    -0.08   0.04  -0.03
  17   1    -0.07  -0.08  -0.12     0.04  -0.13  -0.17    -0.12   0.02  -0.03
  18   1     0.07   0.10   0.20    -0.06   0.16   0.09     0.12  -0.09   0.04
  19   1     0.00   0.00   0.12    -0.00  -0.00  -0.20    -0.04  -0.20   0.02
  20   1    -0.07  -0.10   0.20     0.06  -0.16   0.09     0.08  -0.14   0.04
                      4                      5                      6
                        a                      a                      a 
 Frequencies --   135.3530               227.3767               237.0313
 Red. masses --     7.3010                 1.8351                 2.3746
 Frc consts  --     0.0000                 0.0000                 0.0000
 IR Inten    --     0.0157                 0.0000                 0.0105
 Raman Activ --     0.0000                 0.0000                 0.0000
 Depolar     --     0.0000                 0.0000                 0.0000
 Atom AN      X      Y      Z        X      Y      Z        X      Y      Z
   1   6     0.04  -0.13   0.19     0.00  -0.00   0.04    -0.00   0.00   0.03
   2   6    -0.06   0.03  -0.24    -0.00   0.00  -0.19     0.00  -0.00  -0.19
   3   6     0.01   0.12  -0.39    -0.00   0.00   0.03     0.00  -0.00   0.16
   4   6     0.01   0.13   0.39     0.00  -0.00  -0.03    -0.00  -0.00   0.15
   5   6    -0.06   0.03   0.24    -0.00  -0.00   0.19     0.00   0.00  -0.19
   6   6     0.04  -0.14  -0.19     0.00   0.00  -0.04    -0.00   0.00   0.03
   7   1    -0.01  -0.11   0.11    -0.20   0.26  -0.16    -0.19   0.24  -0.15
   8   1     0.08   0.03   0.11     0.20  -0.26  -0.16     0.19  -0.24  -0.15
   9   1    -0.02  -0.07   0.05    -0.00   0.00   0.41     0.00   0.00   0.38
  10   1     0.02   0.04  -0.09     0.01   0.05  -0.09    -0.00   0.07  -0.11
  11   1    -0.09  -0.02  -0.09    -0.01  -0.05  -0.09     0.00  -0.07  -0.11
  12   1    -0.06  -0.09  -0.21    -0.01   0.05   0.05    -0.03   0.06   0.09
  13   1     0.08   0.16  -0.21     0.01  -0.05   0.05     0.03  -0.06   0.09
  14   1     0.08   0.16   0.21     0.01  -0.05  -0.05    -0.03   0.06   0.09
  15   1    -0.06  -0.09   0.21    -0.01   0.05  -0.05     0.03  -0.06   0.09
  16   1    -0.09  -0.02   0.09    -0.01  -0.05   0.09    -0.00   0.07  -0.11
  17   1     0.02   0.04   0.09     0.01   0.05   0.09     0.00  -0.07  -0.11
  18   1    -0.01  -0.11  -0.11    -0.20   0.26   0.16     0.19  -0.24  -0.15
  19   1    -0.02  -0.07  -0.05    -0.00   0.00  -0.41     0.00  -0.00   0.38
  20   1     0.08   0.03  -0.11     0.20  -0.26   0.15    -0.19   0.24  -0.15
                      7                      8                      9
                        a                      a                      a 
 Frequencies --   301.3760               370.7795               465.0043
 Red. masses --     8.5396                 9.5598                 8.5925
 Frc consts  --     0.0000                 0.0000                 0.0000
 IR Inten    --     0.0000                 0.0000                 0.3767
 Raman Activ --     0.0000                 0.0000                 0.0000
 Depolar     --     0.0000                 0.0000                 0.0000
 Atom AN      X      Y      Z        X      Y      Z        X      Y      Z
   1   6    -0.40   0.15  -0.00     0.30   0.10  -0.00     0.30  -0.01  -0.00
   2   6    -0.09  -0.33   0.00     0.39  -0.18   0.00     0.05   0.27  -0.00
   3   6     0.06  -0.19   0.00     0.20  -0.25   0.00    -0.36  -0.22   0.00
   4   6    -0.06   0.19  -0.00    -0.20   0.25  -0.00    -0.36  -0.22  -0.00
   5   6     0.09   0.33   0.00    -0.39   0.18   0.00     0.04   0.27   0.00
   6   6     0.40  -0.15   0.00    -0.30  -0.10  -0.00     0.30  -0.01   0.00
   7   1    -0.21   0.06  -0.00     0.05   0.03  -0.00     0.18  -0.02   0.00
   8   1    -0.21   0.06   0.00     0.05   0.03   0.00     0.18  -0.02  -0.00
   9   1    -0.01   0.17  -0.00     0.12   0.07  -0.00    -0.01  -0.13   0.00
  10   1    -0.00  -0.09  -0.00     0.15  -0.05  -0.00     0.04   0.07   0.00
  11   1    -0.00  -0.09   0.00     0.15  -0.05   0.00     0.04   0.07  -0.00
  12   1     0.06  -0.06   0.00     0.10  -0.07   0.00    -0.17  -0.05   0.00
  13   1     0.06  -0.06  -0.00     0.10  -0.07  -0.00    -0.17  -0.05  -0.00
  14   1    -0.06   0.05  -0.00    -0.10   0.07  -0.00    -0.17  -0.05   0.00
  15   1    -0.06   0.06  -0.00    -0.10   0.07   0.00    -0.17  -0.05  -0.00
  16   1     0.00   0.09   0.00    -0.15   0.05   0.00     0.04   0.07   0.00
  17   1     0.00   0.09  -0.00    -0.15   0.05  -0.00     0.04   0.07  -0.00
  18   1     0.21  -0.06  -0.00    -0.05  -0.03   0.00     0.18  -0.02  -0.00
  19   1     0.01  -0.17  -0.00    -0.12  -0.07  -0.00    -0.01  -0.13  -0.00
  20   1     0.21  -0.06   0.00    -0.05  -0.03   0.00     0.18  -0.02   0.00
                     10                     11                     12
                        a                      a                      a 
 Frequencies --   769.0647               785.9591               842.4626
 Red. masses --     1.6305                 1.9863                 2.4506
 Frc consts  --     0.0000                 0.0000                 0.0000
 IR Inten    --    12.7206                 0.0001                 3.4783
 Raman Activ --     0.0000                 0.0000                 0.0000
 Depolar     --     0.0000                 0.0000                 0.0000
 Atom AN      X      Y      Z        X      Y      Z        X      Y      Z
   1   6    -0.00  -0.00   0.01     0.00   0.00  -0.03     0.00   0.00   0.09
   2   6     0.00   0.00   0.09     0.00  -0.00  -0.18     0.00   0.00   0.18
   3   6     0.00   0.00   0.14     0.00   0.00  -0.10    -0.00   0.00  -0.16
   4   6    -0.00   0.00   0.14    -0.00   0.00   0.10    -0.00  -0.00  -0.16
   5   6     0.00  -0.00   0.09     0.00  -0.00   0.18    -0.00  -0.00   0.18
   6   6    -0.00  -0.00   0.01    -0.00  -0.00   0.03    -0.00  -0.00   0.09
   7   1     0.07   0.06  -0.05    -0.15  -0.11   0.09     0.21   0.14  -0.10
   8   1    -0.07  -0.06  -0.05     0.15   0.11   0.09    -0.21  -0.14  -0.10
   9   1     0.00   0.00  -0.03     0.00   0.00   0.07     0.00  -0.00  -0.11
  10   1    -0.03   0.23  -0.14    -0.01  -0.32   0.19     0.13   0.20  -0.11
  11   1     0.03  -0.23  -0.14     0.01   0.32   0.19    -0.13  -0.20  -0.11
  12   1    -0.04  -0.33  -0.21    -0.09   0.17   0.10     0.14   0.18   0.10
  13   1     0.04   0.33  -0.21     0.09  -0.17   0.10    -0.14  -0.18   0.10
  14   1    -0.04  -0.33  -0.21     0.09  -0.17  -0.10     0.14   0.18   0.10
  15   1     0.04   0.33  -0.21    -0.09   0.17  -0.10    -0.14  -0.18   0.10
  16   1    -0.03   0.23  -0.14     0.01   0.32  -0.19     0.13   0.20  -0.11
  17   1     0.03  -0.23  -0.14    -0.01  -0.32  -0.19    -0.13  -0.20  -0.11
  18   1    -0.07  -0.06  -0.05    -0.15  -0.11  -0.09    -0.21  -0.14  -0.10
  19   1    -0.00  -0.00  -0.03    -0.00  -0.00  -0.07    -0.00  -0.00  -0.11
  20   1     0.07   0.06  -0.05     0.15   0.11  -0.08     0.21   0.14  -0.10
                     13                     14                     15
                        a                      a                      a 
 Frequencies --   926.1057               940.0485               942.0185
 Red. masses --     2.5063                 5.4026                 6.6704
 Frc consts  --     0.0000                 0.0000                 0.0000
 IR Inten    --     0.0002                 0.0000                 6.8443
 Raman Activ --     0.0000                 0.0000                 0.0000
 Depolar     --     0.0000                 0.0000                 0.0000
 Atom AN      X      Y      Z        X      Y      Z        X      Y      Z
   1   6    -0.00   0.00   0.14     0.20  -0.12  -0.00     0.30  -0.05   0.00
   2   6    -0.00   0.00   0.01     0.06  -0.16   0.00     0.03  -0.24   0.00
   3   6     0.00  -0.00  -0.22    -0.04   0.33   0.00    -0.26   0.20  -0.00
   4   6     0.00  -0.00   0.22     0.04  -0.33  -0.00    -0.26   0.20   0.00
   5   6     0.00   0.00  -0.01    -0.06   0.16   0.00     0.03  -0.24  -0.00
   6   6    -0.00   0.00  -0.14    -0.20   0.12   0.00     0.30  -0.05  -0.00
   7   1     0.23   0.15  -0.09    -0.19   0.02  -0.01    -0.13   0.04  -0.01
   8   1    -0.23  -0.15  -0.09    -0.19   0.02   0.02    -0.13   0.03   0.01
   9   1    -0.00  -0.00  -0.12     0.31   0.29   0.00     0.31   0.27  -0.00
  10   1     0.25  -0.01  -0.01    -0.11  -0.03  -0.00    -0.07  -0.06   0.00
  11   1    -0.25   0.01  -0.01    -0.10  -0.03   0.00    -0.07  -0.06  -0.00
  12   1    -0.11   0.20   0.09    -0.07   0.09  -0.00    -0.09   0.06   0.00
  13   1     0.11  -0.20   0.09    -0.07   0.09   0.00    -0.09   0.05  -0.00
  14   1     0.11  -0.20  -0.09     0.07  -0.09   0.00    -0.09   0.05   0.00
  15   1    -0.11   0.20  -0.09     0.07  -0.09  -0.00    -0.09   0.06  -0.00
  16   1    -0.25   0.01   0.01     0.10   0.03   0.00    -0.07  -0.06   0.00
  17   1     0.25  -0.01   0.01     0.11   0.03  -0.00    -0.07  -0.06  -0.00
  18   1     0.23   0.15   0.09     0.19  -0.02  -0.02    -0.13   0.03   0.01
  19   1    -0.00  -0.00   0.12    -0.31  -0.29  -0.00     0.31   0.27   0.00
  20   1    -0.23  -0.15   0.09     0.19  -0.02   0.02    -0.13   0.03  -0.01
                     16                     17                     18
                        a                      a                      a 
 Frequencies --  1003.9861              1074.4854              1079.9051
 Red. masses --     1.8710                10.0984                 7.5367
 Frc consts  --     0.0000                 0.0000                 0.0000
 IR Inten    --     0.9131                 0.0000                 4.7482
 Raman Activ --     0.0000                 0.0000                 0.0000
 Depolar     --     0.0000                 0.0000                 0.0000
 Atom AN      X      Y      Z        X      Y      Z        X      Y      Z
   1   6     0.00   0.00   0.13     0.29   0.20  -0.00    -0.13  -0.31   0.00
   2   6     0.00  -0.00  -0.14    -0.33  -0.19   0.00     0.21   0.34  -0.00
   3   6     0.00   0.00   0.05    -0.31  -0.23   0.00     0.12  -0.10   0.00
   4   6     0.00  -0.00   0.05     0.31   0.23  -0.00     0.12  -0.10   0.00
   5   6    -0.00   0.00  -0.14     0.33   0.18   0.00     0.21   0.34   0.00
   6   6    -0.00   0.00   0.13    -0.29  -0.20  -0.00    -0.13  -0.31  -0.00
   7   1     0.17   0.11  -0.06     0.11   0.05  -0.00    -0.24  -0.04  -0.01
   8   1    -0.17  -0.11  -0.06     0.11   0.05   0.00    -0.24  -0.04   0.01
   9   1     0.00   0.00  -0.08     0.07   0.04  -0.00     0.13   0.13  -0.00
  10   1     0.23  -0.12   0.04    -0.10  -0.05   0.00    -0.04   0.10   0.00
  11   1    -0.24   0.12   0.04    -0.10  -0.06  -0.00    -0.04   0.10  -0.00
  12   1    -0.34  -0.02  -0.02    -0.09  -0.07  -0.00    -0.12  -0.01   0.00
  13   1     0.33   0.02  -0.02    -0.09  -0.07   0.00    -0.12  -0.01  -0.00
  14   1    -0.33  -0.02  -0.02     0.09   0.07   0.00    -0.12  -0.01   0.00
  15   1     0.34   0.02  -0.02     0.09   0.07  -0.00    -0.12  -0.01  -0.00
  16   1     0.24  -0.12   0.04     0.10   0.05  -0.00    -0.04   0.10   0.00
  17   1    -0.23   0.12   0.04     0.10   0.06   0.00    -0.04   0.10   0.00
  18   1    -0.16  -0.11  -0.06    -0.11  -0.05  -0.00    -0.24  -0.04   0.01
  19   1    -0.00  -0.00  -0.08    -0.07  -0.04  -0.00     0.13   0.13   0.00
  20   1     0.17   0.11  -0.06    -0.11  -0.05   0.00    -0.24  -0.04  -0.01
                     19                     20                     21
                        a                      a                      a 
 Frequencies --  1108.5432              1118.8401              1150.1326
 Red. masses --     7.6446                 8.0237                 8.2082
 Frc consts  --     0.0000                 0.0000                 0.0000
 IR Inten    --     0.0000                 2.7565                 0.0000
 Raman Activ --     0.0000                 0.0000                 0.0000
 Depolar     --     0.0000                 0.0000                 0.0000
 Atom AN      X      Y      Z        X      Y      Z        X      Y      Z
   1   6     0.12   0.15  -0.00     0.22   0.08  -0.00    -0.06   0.19  -0.00
   2   6    -0.26  -0.01  -0.00    -0.37   0.11  -0.00     0.07  -0.37   0.00
   3   6     0.42   0.14  -0.00     0.25  -0.23   0.00    -0.06   0.38  -0.00
   4   6    -0.42  -0.14   0.00     0.25  -0.23   0.00     0.06  -0.38   0.00
   5   6     0.26   0.01   0.00    -0.37   0.11  -0.00    -0.07   0.37   0.00
   6   6    -0.12  -0.15  -0.00     0.22   0.08   0.00     0.06  -0.19  -0.00
   7   1     0.08   0.04  -0.00     0.00   0.05  -0.01     0.17  -0.00   0.02
   8   1     0.08   0.04  -0.00     0.00   0.05   0.01     0.17  -0.00  -0.02
   9   1     0.00   0.00  -0.00     0.12   0.10  -0.00    -0.17  -0.15   0.00
  10   1    -0.18   0.01  -0.00    -0.26   0.04   0.00     0.11  -0.10  -0.00
  11   1    -0.18   0.01   0.00    -0.26   0.04  -0.00     0.11  -0.10   0.00
  12   1     0.25   0.03  -0.00     0.04  -0.07  -0.01    -0.04   0.09  -0.00
  13   1     0.25   0.03  -0.00     0.04  -0.07   0.01    -0.04   0.09   0.00
  14   1    -0.25  -0.03   0.00     0.04  -0.07  -0.01     0.04  -0.09   0.00
  15   1    -0.24  -0.03   0.00     0.04  -0.07   0.01     0.04  -0.09  -0.00
  16   1     0.18  -0.01   0.00    -0.26   0.04  -0.00    -0.11   0.10   0.00
  17   1     0.18  -0.01  -0.00    -0.26   0.04  -0.00    -0.11   0.10  -0.00
  18   1    -0.08  -0.04  -0.00     0.00   0.04   0.01    -0.17   0.00   0.02
  19   1    -0.00  -0.00  -0.00     0.11   0.10   0.00     0.17   0.15   0.00
  20   1    -0.08  -0.04  -0.00     0.00   0.05  -0.01    -0.17   0.00  -0.02
                     22                     23                     24
                        a                      a                      a 
 Frequencies --  1200.1731              1229.8780              1260.4579
 Red. masses --     6.4904                 4.5678                 3.5850
 Frc consts  --     0.0000                 0.0000                 0.0000
 IR Inten    --     0.0000                 0.6980                 1.0956
 Raman Activ --     0.0000                 0.0000                 0.0000
 Depolar     --     0.0000                 0.0000                 0.0000
 Atom AN      X      Y      Z        X      Y      Z        X      Y      Z
   1   6    -0.00  -0.00  -0.20    -0.00   0.00   0.25    -0.04   0.13   0.00
   2   6     0.00   0.00   0.32     0.00  -0.00  -0.30     0.15  -0.17  -0.00
   3   6     0.00   0.00  -0.33     0.00   0.00   0.10     0.21   0.06  -0.00
   4   6     0.00   0.00   0.33     0.00   0.00   0.10     0.21   0.06   0.00
   5   6     0.00  -0.00  -0.32     0.00   0.00  -0.30     0.15  -0.17   0.00
   6   6    -0.00  -0.00   0.20    -0.00  -0.00   0.25    -0.04   0.13  -0.00
   7   1    -0.16  -0.12   0.05     0.18   0.14  -0.06     0.07  -0.01   0.02
   8   1     0.16   0.12   0.05    -0.18  -0.14  -0.06     0.07  -0.01  -0.02
   9   1    -0.00  -0.00   0.09    -0.00  -0.00  -0.10    -0.11  -0.10  -0.00
  10   1     0.01   0.18  -0.06    -0.19  -0.15   0.05    -0.19  -0.02  -0.01
  11   1    -0.01  -0.18  -0.06     0.19   0.15   0.05    -0.18  -0.02   0.01
  12   1     0.04   0.19   0.06     0.21  -0.07  -0.02    -0.37   0.04  -0.00
  13   1    -0.04  -0.19   0.07    -0.21   0.07  -0.02    -0.37   0.04   0.00
  14   1    -0.04  -0.19  -0.06     0.21  -0.07  -0.02    -0.37   0.04  -0.00
  15   1     0.04   0.19  -0.06    -0.21   0.07  -0.02    -0.37   0.04   0.00
  16   1    -0.01  -0.19   0.06    -0.19  -0.15   0.05    -0.18  -0.02  -0.01
  17   1     0.01   0.18   0.06     0.19   0.15   0.05    -0.19  -0.02   0.01
  18   1    -0.16  -0.12  -0.05    -0.18  -0.14  -0.06     0.07  -0.01  -0.02
  19   1    -0.00  -0.00  -0.09    -0.00   0.00  -0.10    -0.11  -0.10   0.00
  20   1     0.16   0.12  -0.05     0.18   0.14  -0.06     0.07  -0.01   0.02
                     25                     26                     27
                        a                      a                      a 
 Frequencies --  1268.6787              1283.7228              1292.9555
 Red. masses --     2.5368                 1.9511                 2.1384
 Frc consts  --     0.0000                 0.0000                 0.0000
 IR Inten    --     0.0001                 0.0000                 0.0151
 Raman Activ --     0.0000                 0.0000                 0.0000
 Depolar     --     0.0000                 0.0000                 0.0000
 Atom AN      X      Y      Z        X      Y      Z        X      Y      Z
   1   6    -0.00   0.00  -0.17     0.00  -0.00  -0.05    -0.00   0.00   0.09
   2   6     0.00  -0.00   0.01    -0.00   0.00   0.14     0.00  -0.00   0.10
   3   6     0.00   0.00   0.20     0.00   0.00   0.14     0.00  -0.00  -0.18
   4   6     0.00   0.00  -0.20    -0.00  -0.00  -0.15     0.00   0.00  -0.18
   5   6     0.00  -0.00  -0.01     0.00  -0.00  -0.14    -0.00   0.00   0.10
   6   6    -0.00   0.00   0.17    -0.00   0.00   0.05     0.00  -0.00   0.09
   7   1    -0.11  -0.09   0.03    -0.03  -0.03   0.02     0.06   0.04  -0.01
   8   1     0.11   0.09   0.03     0.03   0.03   0.02    -0.06  -0.04  -0.01
   9   1    -0.00  -0.00   0.05     0.00   0.00   0.04    -0.00  -0.00  -0.01
  10   1     0.42  -0.02  -0.00    -0.03   0.07  -0.01    -0.37   0.07  -0.01
  11   1    -0.42   0.02  -0.00     0.03  -0.07  -0.01     0.36  -0.07  -0.01
  12   1     0.04  -0.11  -0.03    -0.47  -0.04  -0.02    -0.26   0.11   0.02
  13   1    -0.04   0.11  -0.03     0.47   0.04  -0.02     0.26  -0.11   0.02
  14   1    -0.04   0.11   0.03     0.46   0.04   0.02    -0.26   0.11   0.02
  15   1     0.04  -0.11   0.03    -0.47  -0.04   0.02     0.26  -0.11   0.02
  16   1    -0.42   0.02  -0.00     0.03  -0.07   0.01    -0.36   0.08  -0.01
  17   1     0.42  -0.02   0.00    -0.03   0.07   0.01     0.36  -0.07  -0.01
  18   1    -0.11  -0.09  -0.03    -0.03  -0.03  -0.02    -0.06  -0.04  -0.01
  19   1    -0.00  -0.00  -0.05    -0.00  -0.00  -0.04    -0.00   0.00  -0.01
  20   1     0.11   0.09  -0.03     0.03   0.03  -0.02     0.06   0.04  -0.01
                     28                     29                     30
                        a                      a                      a 
 Frequencies --  1319.5608              1364.0855              1379.4204
 Red. masses --     3.8982                 4.7073                 5.7051
 Frc consts  --     0.0000                 0.0000                 0.0000
 IR Inten    --     0.0000                 1.5227                 0.0000
 Raman Activ --     0.0000                 0.0000                 0.0000
 Depolar     --     0.0000                 0.0000                 0.0000
 Atom AN      X      Y      Z        X      Y      Z        X      Y      Z
   1   6    -0.04   0.12  -0.00     0.03  -0.08   0.00    -0.05   0.02  -0.00
   2   6     0.28  -0.06   0.00    -0.34  -0.00   0.00     0.24   0.01  -0.00
   3   6     0.15  -0.10   0.00     0.20   0.04  -0.00    -0.39   0.04   0.00
   4   6    -0.15   0.10   0.00     0.20   0.04  -0.00     0.39  -0.04  -0.00
   5   6    -0.28   0.06  -0.00    -0.34  -0.00  -0.00    -0.24  -0.01  -0.00
   6   6     0.04  -0.12  -0.00     0.03  -0.08  -0.00     0.05  -0.02  -0.00
   7   1     0.01  -0.03   0.03     0.02   0.04  -0.04     0.01  -0.02   0.02
   8   1     0.01  -0.03  -0.03     0.02   0.04   0.04     0.01  -0.02  -0.02
   9   1    -0.12  -0.11   0.00     0.09   0.09  -0.00    -0.02  -0.01   0.00
  10   1    -0.34   0.01  -0.00     0.33  -0.01  -0.01    -0.19   0.00   0.01
  11   1    -0.34   0.01   0.00     0.33  -0.01   0.01    -0.19   0.00  -0.01
  12   1    -0.22   0.01   0.01    -0.21   0.00  -0.02     0.32  -0.02  -0.01
  13   1    -0.22   0.01  -0.01    -0.21   0.00   0.02     0.33  -0.02   0.01
  14   1     0.23  -0.02  -0.01    -0.21   0.00  -0.02    -0.33   0.02   0.01
  15   1     0.22  -0.01   0.01    -0.21   0.00   0.02    -0.33   0.02  -0.00
  16   1     0.35  -0.01   0.00     0.33  -0.01  -0.01     0.19  -0.00  -0.01
  17   1     0.34  -0.01  -0.00     0.33  -0.01   0.01     0.19  -0.00   0.01
  18   1    -0.01   0.03   0.04     0.02   0.04   0.04    -0.01   0.02   0.02
  19   1     0.12   0.11   0.00     0.09   0.09   0.00     0.03   0.01   0.00
  20   1    -0.01   0.03  -0.03     0.02   0.04  -0.04    -0.01   0.02  -0.02
                     31                     32                     33
                        a                      a                      a 
 Frequencies --  1415.9753              1416.1193              1495.8235
 Red. masses --     3.1511                 3.2112                 1.9158
 Frc consts  --     0.0000                 0.0000                 0.0000
 IR Inten    --     0.0026                 1.7593                 0.0001
 Raman Activ --     0.0000                 0.0000                 0.0000
 Depolar     --     0.0000                 0.0000                 0.0000
 Atom AN      X      Y      Z        X      Y      Z        X      Y      Z
   1   6     0.28   0.15  -0.00     0.26   0.13  -0.00    -0.00   0.04   0.00
   2   6    -0.05   0.01  -0.00    -0.07   0.01  -0.00    -0.03  -0.13   0.00
   3   6    -0.02   0.02  -0.00     0.02   0.01   0.00    -0.04  -0.14   0.00
   4   6     0.02  -0.02  -0.00     0.02   0.01   0.00     0.04   0.15  -0.00
   5   6     0.04  -0.01   0.00    -0.07   0.01  -0.00     0.03   0.13   0.00
   6   6    -0.26  -0.14  -0.00     0.29   0.14   0.00     0.00  -0.04  -0.00
   7   1    -0.35  -0.10   0.11    -0.32  -0.09   0.10     0.01  -0.11   0.08
   8   1    -0.35  -0.10  -0.11    -0.32  -0.09  -0.10     0.01  -0.11  -0.08
   9   1    -0.23  -0.30   0.00    -0.21  -0.27   0.00     0.03   0.04  -0.00
  10   1     0.05  -0.03   0.02     0.06  -0.03   0.02     0.03   0.24  -0.18
  11   1     0.05  -0.03  -0.02     0.06  -0.03  -0.02     0.03   0.24   0.18
  12   1     0.03   0.00  -0.00    -0.02   0.01   0.00     0.04   0.27   0.20
  13   1     0.03   0.00   0.00    -0.02   0.01  -0.00     0.04   0.27  -0.20
  14   1    -0.03  -0.00   0.00    -0.02   0.01   0.00    -0.04  -0.28  -0.21
  15   1    -0.03  -0.00  -0.00    -0.02   0.01  -0.00    -0.04  -0.28   0.21
  16   1    -0.04   0.03  -0.02     0.07  -0.03   0.02    -0.03  -0.24   0.18
  17   1    -0.04   0.03   0.02     0.07  -0.03  -0.02    -0.03  -0.24  -0.18
  18   1     0.32   0.09   0.10    -0.35  -0.10  -0.11    -0.01   0.11   0.08
  19   1     0.21   0.28   0.00    -0.22  -0.30  -0.00    -0.03  -0.04   0.00
  20   1     0.32   0.09  -0.10    -0.35  -0.10   0.11    -0.01   0.11  -0.08
                     34                     35                     36
                        a                      a                      a 
 Frequencies --  1496.4361              1500.1283              1502.5955
 Red. masses --     1.8502                 1.9874                 1.7983
 Frc consts  --     0.0000                 0.0000                 0.0000
 IR Inten    --     0.2115                 0.6099                 0.0012
 Raman Activ --     0.0000                 0.0000                 0.0000
 Depolar     --     0.0000                 0.0000                 0.0000
 Atom AN      X      Y      Z        X      Y      Z        X      Y      Z
   1   6    -0.01  -0.02   0.00     0.01  -0.04  -0.00     0.02  -0.00  -0.00
   2   6    -0.01   0.15  -0.00     0.04   0.11  -0.00     0.00  -0.15   0.00
   3   6     0.01  -0.13   0.00     0.00   0.17  -0.00     0.00   0.12  -0.00
   4   6     0.02  -0.12   0.00     0.00   0.17  -0.00    -0.00  -0.12   0.00
   5   6    -0.01   0.15   0.00     0.04   0.11  -0.00    -0.00   0.15   0.00
   6   6    -0.01  -0.02   0.00     0.01  -0.04  -0.00    -0.02   0.00   0.01
   7   1     0.01   0.05  -0.04    -0.01   0.12  -0.08    -0.02   0.01  -0.01
   8   1     0.01   0.05   0.04    -0.01   0.12   0.08    -0.02   0.01   0.01
   9   1    -0.00  -0.00  -0.00    -0.04  -0.05   0.00    -0.02  -0.03   0.00
  10   1    -0.01  -0.29   0.22    -0.03  -0.22   0.16     0.01   0.29  -0.22
  11   1    -0.01  -0.29  -0.22    -0.03  -0.22  -0.16     0.01   0.29   0.22
  12   1    -0.00   0.24   0.18    -0.02  -0.29  -0.22    -0.01  -0.25  -0.19
  13   1    -0.00   0.24  -0.18    -0.02  -0.29   0.22    -0.01  -0.25   0.19
  14   1    -0.01   0.24   0.17    -0.02  -0.29  -0.22     0.01   0.25   0.18
  15   1    -0.01   0.23  -0.17    -0.02  -0.29   0.22     0.02   0.25  -0.19
  16   1    -0.01  -0.30   0.22    -0.03  -0.22   0.16    -0.00  -0.29   0.22
  17   1    -0.01  -0.30  -0.22    -0.03  -0.21  -0.16    -0.01  -0.29  -0.22
  18   1     0.02   0.05   0.04    -0.02   0.12   0.09     0.03  -0.01  -0.01
  19   1    -0.00  -0.00  -0.00    -0.04  -0.05   0.01     0.02   0.03  -0.02
  20   1     0.01   0.06  -0.04    -0.01   0.12  -0.08     0.01  -0.00   0.00
                     37                     38                     39
                        a                      a                      a 
 Frequencies --  1504.8096              1504.8562              1507.8060
 Red. masses --     1.5327                 1.5327                 1.6747
 Frc consts  --     0.0000                 0.0000                 0.0000
 IR Inten    --     4.7114                 0.1455                 2.2679
 Raman Activ --     0.0000                 0.0000                 0.0000
 Depolar     --     0.0000                 0.0000                 0.0000
 Atom AN      X      Y      Z        X      Y      Z        X      Y      Z
   1   6     0.00  -0.00  -0.12     0.00   0.00   0.17     0.07  -0.13   0.00
   2   6    -0.00  -0.00  -0.03    -0.00  -0.00   0.04     0.03  -0.09   0.00
   3   6     0.00   0.00   0.01     0.00   0.00   0.00    -0.01  -0.03   0.00
   4   6    -0.00  -0.00   0.00    -0.00  -0.00  -0.00    -0.01  -0.03   0.00
   5   6    -0.00   0.00  -0.04    -0.00   0.00  -0.03     0.03  -0.08  -0.00
   6   6    -0.00   0.00  -0.17    -0.00   0.00  -0.12     0.07  -0.13  -0.00
   7   1     0.25  -0.10   0.04    -0.35   0.14  -0.06    -0.07   0.35  -0.25
   8   1    -0.25   0.10   0.05     0.35  -0.14  -0.06    -0.07   0.35   0.25
   9   1    -0.00   0.00   0.41    -0.00  -0.00  -0.59    -0.14  -0.18  -0.00
  10   1    -0.01  -0.00  -0.00     0.02   0.02  -0.00    -0.02   0.10  -0.08
  11   1     0.01   0.02   0.00    -0.02  -0.01   0.00    -0.02   0.10   0.08
  12   1     0.01  -0.00  -0.00    -0.02  -0.00  -0.00     0.01   0.07   0.05
  13   1    -0.01   0.00   0.00     0.02  -0.00   0.00     0.01   0.07  -0.05
  14   1     0.01   0.01   0.01     0.01   0.01   0.00     0.01   0.06   0.05
  15   1    -0.01   0.01  -0.01    -0.01   0.01  -0.01     0.01   0.06  -0.05
  16   1    -0.01  -0.02   0.00    -0.01  -0.01   0.00    -0.02   0.10  -0.08
  17   1     0.02   0.01  -0.00     0.01   0.01  -0.00    -0.02   0.10   0.08
  18   1    -0.35   0.14   0.06    -0.24   0.10   0.05    -0.07   0.34   0.25
  19   1     0.00  -0.00   0.59     0.00  -0.00   0.41    -0.13  -0.18  -0.00
  20   1     0.35  -0.14   0.06     0.25  -0.10   0.04    -0.07   0.34  -0.24
                     40                     41                     42
                        a                      a                      a 
 Frequencies --  1508.0700              2955.3257              2960.3879
 Red. masses --     1.6238                 1.8975                 1.9527
 Frc consts  --     0.0000                 0.0000                 0.0000
 IR Inten    --     0.0006                 0.0001                 0.6417
 Raman Activ --     0.0000                 0.0000                 0.0000
 Depolar     --     0.0000                 0.0000                 0.0000
 Atom AN      X      Y      Z        X      Y      Z        X      Y      Z
   1   6     0.07  -0.13   0.00     0.00  -0.00   0.00    -0.00  -0.00  -0.01
   2   6     0.03  -0.06   0.00    -0.00  -0.00  -0.08    -0.00   0.00   0.16
   3   6    -0.02  -0.04   0.00     0.00   0.00   0.19    -0.00  -0.00  -0.13
   4   6     0.02   0.04  -0.00    -0.00  -0.00  -0.19    -0.00   0.00  -0.13
   5   6    -0.03   0.06   0.00    -0.00  -0.00   0.08    -0.00  -0.00   0.16
   6   6    -0.07   0.13   0.00     0.00   0.00  -0.00     0.00   0.00  -0.01
   7   1    -0.07   0.35  -0.25    -0.00  -0.01  -0.01     0.00   0.02   0.03
   8   1    -0.07   0.35   0.25     0.00   0.01  -0.01    -0.00  -0.02   0.03
   9   1    -0.13  -0.18  -0.00    -0.00   0.00   0.00     0.00  -0.00  -0.00
  10   1    -0.02   0.05  -0.04     0.01   0.11   0.15    -0.01  -0.22  -0.29
  11   1    -0.02   0.05   0.04    -0.01  -0.11   0.15     0.01   0.22  -0.29
  12   1     0.02   0.09   0.07     0.02   0.27  -0.35    -0.01  -0.18   0.24
  13   1     0.02   0.09  -0.07    -0.02  -0.27  -0.35     0.01   0.19   0.24
  14   1    -0.02  -0.10  -0.07    -0.02  -0.27   0.35    -0.01  -0.18   0.24
  15   1    -0.02  -0.10   0.07     0.02   0.27   0.35     0.01   0.18   0.24
  16   1     0.02  -0.05   0.04    -0.01  -0.11  -0.15    -0.01  -0.22  -0.29
  17   1     0.02  -0.05  -0.04     0.01   0.12  -0.15     0.01   0.22  -0.29
  18   1     0.07  -0.35  -0.26    -0.00  -0.01   0.01    -0.00  -0.02   0.03
  19   1     0.14   0.18   0.00    -0.00   0.00  -0.00    -0.00   0.00  -0.00
  20   1     0.07  -0.36   0.25     0.00   0.01   0.01     0.00   0.02   0.03
                     43                     44                     45
                        a                      a                      a 
 Frequencies --  2968.7819              2975.3383              2975.5349
 Red. masses --     2.0062                 1.4480                 1.4652
 Frc consts  --     0.0000                 0.0000                 0.0000
 IR Inten    --     0.0002                 0.0035                 0.1689
 Raman Activ --     0.0000                 0.0000                 0.0000
 Depolar     --     0.0000                 0.0000                 0.0000
 Atom AN      X      Y      Z        X      Y      Z        X      Y      Z
   1   6    -0.00   0.00   0.02     0.00  -0.01  -0.00    -0.00   0.00  -0.00
   2   6     0.00  -0.00  -0.19     0.00   0.01   0.00    -0.01  -0.10   0.00
   3   6    -0.00  -0.00  -0.09     0.01   0.13  -0.00     0.01   0.12   0.00
   4   6     0.00   0.00   0.08    -0.01  -0.15   0.00     0.01   0.09   0.00
   5   6    -0.00  -0.00   0.19     0.00   0.01   0.00    -0.01  -0.10   0.00
   6   6     0.00  -0.00  -0.02    -0.00   0.01  -0.00    -0.00   0.00  -0.00
   7   1    -0.00  -0.04  -0.05     0.00   0.01   0.02    -0.00  -0.00  -0.01
   8   1     0.00   0.04  -0.05     0.00   0.01  -0.02    -0.00  -0.01   0.01
   9   1     0.00  -0.00   0.00    -0.01   0.01  -0.00     0.01  -0.01  -0.00
  10   1     0.02   0.26   0.35    -0.00  -0.01  -0.02     0.01   0.19   0.29
  11   1    -0.02  -0.26   0.35    -0.00  -0.01   0.02     0.01   0.19  -0.30
  12   1    -0.01  -0.11   0.15    -0.02  -0.25   0.38    -0.01  -0.21   0.32
  13   1     0.01   0.11   0.15    -0.02  -0.25  -0.38    -0.01  -0.22  -0.33
  14   1     0.01   0.11  -0.14     0.02   0.28  -0.44    -0.01  -0.16   0.25
  15   1    -0.01  -0.11  -0.15     0.02   0.28   0.43    -0.01  -0.17  -0.25
  16   1    -0.02  -0.26  -0.35     0.00  -0.02  -0.03     0.01   0.18   0.28
  17   1     0.02   0.27  -0.35     0.00  -0.02   0.03     0.01   0.19  -0.29
  18   1    -0.00  -0.04   0.05    -0.00  -0.01   0.02    -0.00  -0.01   0.01
  19   1    -0.00   0.00  -0.00     0.01  -0.01  -0.00     0.01  -0.01  -0.00
  20   1     0.00   0.04   0.05    -0.00  -0.01  -0.02    -0.00  -0.01  -0.01
                     46                     47                     48
                        a                      a                      a 
 Frequencies --  2978.2253              2981.6199              2988.6967
 Red. masses --     2.0477                 1.4813                 1.5250
 Frc consts  --     0.0000                 0.0000                 0.0000
 IR Inten    --   178.6470                 0.0073               136.7498
 Raman Activ --     0.0000                 0.0000                 0.0000
 Depolar     --     0.0000                 0.0000                 0.0000
 Atom AN      X      Y      Z        X      Y      Z        X      Y      Z
   1   6    -0.00   0.00   0.02     0.01  -0.02   0.00     0.01  -0.03   0.00
   2   6    -0.00  -0.00  -0.13     0.01   0.14  -0.00     0.01   0.10  -0.00
   3   6     0.00   0.00  -0.17    -0.00   0.01  -0.00     0.01   0.11  -0.00
   4   6    -0.00   0.00  -0.17     0.00  -0.01  -0.00     0.01   0.11  -0.00
   5   6     0.00  -0.00  -0.14    -0.01  -0.15  -0.00     0.01   0.10  -0.00
   6   6    -0.00   0.00   0.02    -0.01   0.02   0.00     0.01  -0.03   0.00
   7   1    -0.00  -0.04  -0.05     0.00   0.02   0.03     0.00   0.03   0.05
   8   1     0.00   0.04  -0.05     0.00   0.02  -0.03     0.00   0.03  -0.05
   9   1     0.00  -0.00   0.00    -0.04   0.03  -0.00    -0.05   0.04  -0.00
  10   1     0.01   0.19   0.24    -0.02  -0.27  -0.41    -0.01  -0.18  -0.28
  11   1    -0.01  -0.18   0.23    -0.02  -0.26   0.41    -0.01  -0.18   0.28
  12   1    -0.02  -0.22   0.30     0.00  -0.00   0.00    -0.01  -0.19   0.29
  13   1     0.02   0.22   0.28     0.00  -0.00  -0.00    -0.01  -0.19  -0.29
  14   1    -0.01  -0.22   0.29    -0.00  -0.00   0.00    -0.01  -0.19   0.29
  15   1     0.02   0.22   0.29    -0.00   0.00   0.00    -0.01  -0.19  -0.29
  16   1     0.01   0.18   0.24     0.02   0.27   0.41    -0.01  -0.18  -0.28
  17   1    -0.01  -0.18   0.23     0.02   0.27  -0.41    -0.01  -0.19   0.28
  18   1     0.00   0.04  -0.05    -0.00  -0.02   0.03     0.00   0.03  -0.05
  19   1     0.00  -0.00   0.00     0.04  -0.03  -0.00    -0.05   0.04   0.00
  20   1    -0.00  -0.04  -0.05    -0.00  -0.02  -0.03     0.00   0.03   0.05
                     49                     50                     51
                        a                      a                      a 
 Frequencies --  3030.2348              3030.7307              3032.4109
 Red. masses --     1.9585                 1.9596                 1.9313
 Frc consts  --     0.0000                 0.0000                 0.0000
 IR Inten    --     0.0550               122.4087                 0.0234
 Raman Activ --     0.0000                 0.0000                 0.0000
 Depolar     --     0.0000                 0.0000                 0.0000
 Atom AN      X      Y      Z        X      Y      Z        X      Y      Z
   1   6     0.00  -0.00  -0.20    -0.00   0.00   0.21     0.09  -0.18   0.00
   2   6    -0.00  -0.00  -0.03    -0.00   0.00   0.03     0.00  -0.02   0.00
   3   6    -0.00  -0.00  -0.01     0.00   0.00   0.01    -0.00  -0.01   0.00
   4   6     0.00  -0.00   0.01     0.00  -0.00   0.01     0.00   0.01   0.00
   5   6    -0.00  -0.00   0.03    -0.00  -0.00   0.03    -0.00   0.02   0.00
   6   6     0.00  -0.00   0.21     0.00  -0.00   0.20    -0.09   0.18   0.00
   7   1     0.02   0.28   0.37    -0.02  -0.29  -0.38     0.03   0.17   0.28
   8   1    -0.02  -0.28   0.37     0.02   0.29  -0.38     0.03   0.17  -0.29
   9   1    -0.00   0.00  -0.03     0.00  -0.00   0.03    -0.38   0.30  -0.00
  10   1     0.00   0.03   0.05    -0.00  -0.04  -0.05     0.00   0.03   0.04
  11   1    -0.00  -0.03   0.05     0.00   0.04  -0.05     0.00   0.03  -0.04
  12   1     0.00  -0.01   0.01     0.00   0.02  -0.02    -0.00   0.01  -0.02
  13   1    -0.00   0.01   0.01    -0.00  -0.02  -0.02    -0.00   0.01   0.02
  14   1    -0.00   0.01  -0.01     0.00   0.02  -0.02     0.00  -0.01   0.02
  15   1     0.00  -0.01  -0.01    -0.00  -0.02  -0.02     0.00  -0.01  -0.02
  16   1    -0.00  -0.03  -0.05    -0.00  -0.04  -0.05    -0.00  -0.03  -0.04
  17   1     0.00   0.03  -0.05     0.00   0.04  -0.05    -0.00  -0.03   0.04
  18   1     0.02   0.30  -0.38     0.02   0.29  -0.37    -0.03  -0.17   0.28
  19   1    -0.00   0.00   0.03    -0.00   0.00   0.03     0.37  -0.30  -0.00
  20   1    -0.02  -0.29  -0.38    -0.02  -0.28  -0.37    -0.03  -0.17  -0.29
                     52                     53                     54
                        a                      a                      a 
 Frequencies --  3032.9911              3037.7398              3038.5162
 Red. masses --     1.9359                 1.2532                 1.2614
 Frc consts  --     0.0000                 0.0000                 0.0000
 IR Inten    --   121.7120                63.3199                 0.0008
 Raman Activ --     0.0000                 0.0000                 0.0000
 Depolar     --     0.0000                 0.0000                 0.0000
 Atom AN      X      Y      Z        X      Y      Z        X      Y      Z
   1   6     0.09  -0.18   0.00    -0.10  -0.03   0.00     0.10   0.02  -0.00
   2   6     0.00  -0.02   0.00    -0.00  -0.01   0.00     0.00   0.00  -0.00
   3   6    -0.00  -0.01   0.00     0.00  -0.00   0.00    -0.00   0.00  -0.00
   4   6    -0.00  -0.01  -0.00     0.00  -0.00  -0.00     0.00  -0.00  -0.00
   5   6     0.00  -0.02  -0.00    -0.00  -0.01  -0.00    -0.00  -0.00  -0.00
   6   6     0.09  -0.18  -0.00    -0.10  -0.03  -0.00    -0.10  -0.02  -0.00
   7   1     0.03   0.16   0.26     0.01   0.21   0.31    -0.01  -0.20  -0.29
   8   1     0.03   0.16  -0.27     0.01   0.21  -0.31    -0.01  -0.20   0.29
   9   1    -0.39   0.32  -0.00     0.34  -0.30   0.00    -0.36   0.32  -0.00
  10   1     0.00   0.03   0.05    -0.00   0.01   0.01     0.00  -0.00  -0.00
  11   1     0.00   0.03  -0.05    -0.00   0.01  -0.01     0.00  -0.00   0.00
  12   1     0.00   0.02  -0.04     0.00   0.01  -0.01     0.00  -0.00   0.01
  13   1     0.00   0.02   0.04     0.00   0.01   0.01     0.00  -0.00  -0.01
  14   1     0.00   0.02  -0.04     0.00   0.01  -0.01    -0.00   0.00  -0.01
  15   1     0.00   0.02   0.04     0.00   0.01   0.01    -0.00   0.00   0.01
  16   1     0.00   0.03   0.05    -0.00   0.01   0.01    -0.00   0.00   0.00
  17   1     0.00   0.03  -0.05    -0.00   0.01  -0.01    -0.00   0.00  -0.00
  18   1     0.03   0.16  -0.26     0.01   0.21  -0.30     0.00   0.21  -0.29
  19   1    -0.39   0.31   0.00     0.35  -0.30  -0.00     0.36  -0.32  -0.00
  20   1     0.03   0.16   0.27     0.01   0.21   0.31     0.01   0.20   0.29
