 Entering Gaussian System
 *********************************************
 Gaussian 98:
 frequency output generated by the xtb code
 *********************************************
                         Standard orientation:
 --------------------------------------------------------------------
  Center     Atomic     Atomic              Coordinates (Angstroms)
  Number     Number      Type              X           Y           Z
 --------------------------------------------------------------------
    1          6             0        3.182819    0.222497   -0.000896
    2          6             0        1.868383   -0.548618    0.000544
    3          6             0        0.659716    0.384403   -0.001261
    4          6             0       -0.659614   -0.383716    0.001688
    5          6             0       -1.868692    0.548761    0.002190
    6          6             0       -3.182553   -0.223341   -0.002218
    7          1             0        3.253719    0.857371    0.879662
    8          1             0        3.253628    0.854347   -0.883631
    9          1             0        4.028175   -0.461761    0.000246
   10          1             0        1.826149   -1.194036   -0.879724
   11          1             0        1.826121   -1.190625    0.883303
   12          1             0        0.701705    1.026186   -0.884530
   13          1             0        0.702881    1.031079    0.878387
   14          1             0       -0.700807   -1.026714    0.884119
   15          1             0       -0.703268   -1.029230   -0.878792
   16          1             0       -1.828292    1.190055    0.885547
   17          1             0       -1.825439    1.194919   -0.877484
   18          1             0       -3.251783   -0.863595    0.874575
   19          1             0       -4.028502    0.460152    0.004090
   20          1             0       -3.253936   -0.849925   -0.888654
 --------------------------------------------------------------------
     1 basis functions        1 primitive gaussians
     1 alpha electrons        1 beta electrons
 
 Harmonic frequencies (cm**-1), IR intensities (KM/Mole),
 Raman scattering activities (A**4/amu), Raman depolarization ratios,
 reduced masses (AMU), force constants (mDyne/A) and normal coordinates:
                      1                      2                      3
                        a                      a                      a 
 Frequencies --    92.6008                67.8733               135.3530
 Red. masses --    99.0000                99.0000                99.0000
 Frc consts  --    99.0000                99.0000                99.0000
 IR Inten    --    99.0000                99.0000                99.0000
 Raman Activ --     0.0000                 0.0000                 0.0000
 Depolar     --     0.0000                 0.0000                 0.0000
 Atom AN      X      Y      Z        X      Y      Z        X      Y      Z
   1   6     0.00  -0.00  -0.08     0.00   0.00   0.44     0.04  -0.13   0.19
   2   6    -0.00  -0.00  -0.27     0.00  -0.00  -0.21    -0.06   0.03  -0.24
   3   6     0.00   0.00   0.36     0.00  -0.00  -0.26     0.01   0.12  -0.39
   4   6     0.00   0.00   0.36     0.00   0.00  -0.26     0.01   0.13   0.39
   5   6    -0.00   0.00  -0.27     0.00   0.00  -0.21    -0.06   0.03   0.24
   6   6     0.00  -0.00  -0.08    -0.00  -0.00   0.44     0.04  -0.14  -0.19
   7   1     0.06  -0.16   0.09    -0.07  -0.10   0.20    -0.01  -0.11   0.11
   8   1    -0.06   0.16   0.09     0.07   0.10   0.20     0.08   0.03   0.11
   9   1    -0.00  -0.00  -0.20     0.00   0.00   0.12    -0.02  -0.07   0.05
  10   1    -0.04   0.13  -0.17     0.08   0.08  -0.12     0.02   0.04  -0.09
  11   1     0.04  -0.13  -0.17    -0.08  -0.08  -0.12    -0.09  -0.02  -0.09
  12   1    -0.06   0.09   0.16     0.01   0.00  -0.07    -0.06  -0.09  -0.21
  13   1     0.06  -0.09   0.17    -0.01  -0.00  -0.07     0.08   0.16  -0.21
  14   1    -0.06   0.09   0.17     0.01   0.00  -0.07     0.08   0.16   0.21
  15   1     0.06  -0.09   0.17    -0.01  -0.00  -0.07    -0.06  -0.09   0.21
  16   1    -0.04   0.13  -0.17     0.08   0.08  -0.12    -0.09  -0.02   0.09
  17   1     0.04  -0.13  -0.17    -0.07  -0.08  -0.12     0.02   0.04   0.09
  18   1    -0.06   0.16   0.09     0.07   0.10   0.20    -0.01  -0.11  -0.11
  19   1    -0.00  -0.00  -0.20     0.00   0.00   0.12    -0.02  -0.07  -0.05
  20   1     0.06  -0.16   0.09    -0.07  -0.10   0.20     0.08   0.03  -0.11
                      4                      5                      6
                        a                      a                      a 
 Frequencies --   227.3767               237.0313               135.0375
 Red. masses --    99.0000                99.0000                99.0000
 Frc consts  --    99.0000                99.0000                99.0000
 IR Inten    --    99.0000                99.0000                99.0000
 Raman Activ --     0.0000                 0.0000                 0.0000
 Depolar     --     0.0000                 0.0000                 0.0000
 Atom AN      X      Y      Z        X      Y      Z        X      Y      Z
   1   6     0.00  -0.00   0.04    -0.00   0.00   0.03     0.11  -0.38  -0.07
   2   6    -0.00   0.00  -0.19     0.00  -0.00  -0.19    -0.16   0.08   0.09
   3   6    -0.00   0.00   0.03     0.00  -0.00   0.16     0.04   0.35   0.14
   4   6     0.00  -0.00  -0.03    -0.00  -0.00   0.15     0.04   0.35  -0.14
   5   6    -0.00  -0.00   0.19     0.00   0.00  -0.19    -0.16   0.08  -0.08
   6   6     0.00   0.00  -0.04    -0.00   0.00   0.03     0.11  -0.38   0.07
   7   1    -0.20   0.26  -0.16    -0.19   0.24  -0.15     0.12  -0.09  -0.04
   8   1     0.20  -0.26  -0.16     0.19  -0.24  -0.15     0.08  -0.14  -0.04
   9   1    -0.00   0.00   0.41     0.00   0.00   0.38    -0.04  -0.20  -0.02
  10   1     0.01   0.05  -0.09    -0.00   0.07  -0.11    -0.12   0.01   0.04
  11   1    -0.01  -0.05  -0.09     0.00  -0.07  -0.11    -0.08   0.04   0.03
  12   1    -0.01   0.05   0.05    -0.03   0.06   0.09     0.06   0.14   0.07
  13   1     0.01  -0.05   0.05     0.03  -0.06   0.09     0.01   0.05   0.08
  14   1     0.01  -0.05  -0.05    -0.03   0.06   0.09     0.01   0.05  -0.08
  15   1    -0.01   0.05  -0.05     0.03  -0.06   0.09     0.06   0.14  -0.07
  16   1    -0.01  -0.05   0.09    -0.00   0.07  -0.11    -0.08   0.04  -0.03
  17   1     0.01   0.05   0.09     0.00  -0.07  -0.11    -0.12   0.02  -0.03
  18   1    -0.20   0.26   0.16     0.19  -0.24  -0.15     0.12  -0.09   0.04
  19   1    -0.00   0.00  -0.41     0.00  -0.00   0.38    -0.04  -0.20   0.02
  20   1     0.20  -0.26   0.15    -0.19   0.24  -0.15     0.08  -0.14   0.04
                      7                      8                      9
                        a                      a                      a 
 Frequencies --   301.3760               370.7795               465.0043
 Red. masses --    99.0000                99.0000                99.0000
 Frc consts  --    99.0000                99.0000                99.0000
 IR Inten    --    99.0000                99.0000                99.0000
 Raman Activ --     0.0000                 0.0000                 0.0000
 Depolar     --     0.0000                 0.0000                 0.0000
 Atom AN      X      Y      Z        X      Y      Z        X      Y      Z
   1   6    -0.40   0.15  -0.00     0.30   0.10  -0.00     0.30  -0.01  -0.00
   2   6    -0.09  -0.33   0.00     0.39  -0.18   0.00     0.05   0.27  -0.00
   3   6     0.06  -0.19   0.00     0.20  -0.25   0.00    -0.36  -0.22   0.00
   4   6    -0.06   0.19  -0.00    -0.20   0.25  -0.00    -0.36  -0.22  -0.00
   5   6     0.09   0.33   0.00    -0.39   0.18   0.00     0.04   0.27   0.00
   6   6     0.40  -0.15   0.00    -0.30  -0.10  -0.00     0.30  -0.01   0.00
   7   1    -0.21   0.06  -0.00     0.05   0.03  -0.00     0.18  -0.02   0.00
   8   1    -0.21   0.06   0.00     0.05   0.03   0.00     0.18  -0.02  -0.00
   9   1    -0.01   0.17  -0.00     0.12   0.07  -0.00    -0.01  -0.13   0.00
  10   1    -0.00  -0.09  -0.00     0.15  -0.05  -0.00     0.04   0.07   0.00
  11   1    -0.00  -0.09   0.00     0.15  -0.05   0.00     0.04   0.07  -0.00
  12   1     0.06  -0.06   0.00     0.10  -0.07   0.00    -0.17  -0.05   0.00
  13   1     0.06  -0.06  -0.00     0.10  -0.07  -0.00    -0.17  -0.05  -0.00
  14   1    -0.06   0.05  -0.00    -0.10   0.07  -0.00    -0.17  -0.05   0.00
  15   1    -0.06   0.06  -0.00    -0.10   0.07   0.00    -0.17  -0.05  -0.00
  16   1     0.00   0.09   0.00    -0.15   0.05   0.00     0.04   0.07   0.00
  17   1     0.00   0.09  -0.00    -0.15   0.05  -0.00     0.04   0.07  -0.00
  18   1     0.21  -0.06  -0.00    -0.05  -0.03   0.00     0.18  -0.02  -0.00
  19   1     0.01  -0.17  -0.00    -0.12  -0.07  -0.00    -0.01  -0.13  -0.00
  20   1     0.21  -0.06   0.00    -0.05  -0.03   0.00     0.18  -0.02   0.00
                     10                     11                     12
                        a                      a                      a 
 Frequencies --   769.0647               842.4626               785.9591
 Red. masses --    99.0000                99.0000                99.0000
 Frc consts  --    99.0000                99.0000                99.0000
 IR Inten    --    99.0000                99.0000                99.0000
 Raman Activ --     0.0000                 0.0000                 0.0000
 Depolar     --     0.0000                 0.0000                 0.0000
 Atom AN      X      Y      Z        X      Y      Z        X      Y      Z
   1   6    -0.00  -0.00   0.01     0.00   0.00   0.09     0.00   0.00  -0.03
   2   6     0.00   0.00   0.09     0.00   0.00   0.18     0.00  -0.00  -0.18
   3   6     0.00   0.00   0.14    -0.00   0.00  -0.16     0.00   0.00  -0.10
   4   6    -0.00   0.00   0.14    -0.00  -0.00  -0.16    -0.00   0.00   0.10
   5   6     0.00  -0.00   0.09    -0.00  -0.00   0.18     0.00  -0.00   0.18
   6   6    -0.00  -0.00   0.01    -0.00  -0.00   0.09    -0.00  -0.00   0.03
   7   1     0.07   0.06  -0.05     0.21   0.14  -0.10    -0.15  -0.11   0.09
   8   1    -0.07  -0.06  -0.05    -0.21  -0.14  -0.10     0.15   0.11   0.09
   9   1     0.00   0.00  -0.03     0.00  -0.00  -0.11     0.00   0.00   0.07
  10   1    -0.03   0.23  -0.14     0.13   0.20  -0.11    -0.01  -0.32   0.19
  11   1     0.03  -0.23  -0.14    -0.13  -0.20  -0.11     0.01   0.32   0.19
  12   1    -0.04  -0.33  -0.21     0.14   0.18   0.10    -0.09   0.17   0.10
  13   1     0.04   0.33  -0.21    -0.14  -0.18   0.10     0.09  -0.17   0.10
  14   1    -0.04  -0.33  -0.21     0.14   0.18   0.10     0.09  -0.17  -0.10
  15   1     0.04   0.33  -0.21    -0.14  -0.18   0.10    -0.09   0.17  -0.10
  16   1    -0.03   0.23  -0.14     0.13   0.20  -0.11     0.01   0.32  -0.19
  17   1     0.03  -0.23  -0.14    -0.13  -0.20  -0.11    -0.01  -0.32  -0.19
  18   1    -0.07  -0.06  -0.05    -0.21  -0.14  -0.10    -0.15  -0.11  -0.09
  19   1    -0.00  -0.00  -0.03    -0.00  -0.00  -0.11    -0.00  -0.00  -0.07
  20   1     0.07   0.06  -0.05     0.21   0.14  -0.10     0.15   0.11  -0.08
                     13                     14                     15
                        a                      a                      a 
 Frequencies --  1504.8096              1504.8562              1508.0700
 Red. masses --    99.0000                99.0000                99.0000
 Frc consts  --    99.0000                99.0000                99.0000
 IR Inten    --    99.0000                99.0000                99.0000
 Raman Activ --     0.0000                 0.0000                 0.0000
 Depolar     --     0.0000                 0.0000                 0.0000
 Atom AN      X      Y      Z        X      Y      Z        X      Y      Z
   1   6     0.00  -0.00  -0.12     0.00   0.00   0.17     0.07  -0.13   0.00
   2   6    -0.00  -0.00  -0.03    -0.00  -0.00   0.04     0.03  -0.06   0.00
   3   6     0.00   0.00   0.01     0.00   0.00   0.00    -0.02  -0.04   0.00
   4   6    -0.00  -0.00   0.00    -0.00  -0.00  -0.00     0.02   0.04  -0.00
   5   6    -0.00   0.00  -0.04    -0.00   0.00  -0.03    -0.03   0.06   0.00
   6   6    -0.00   0.00  -0.17    -0.00   0.00  -0.12    -0.07   0.13   0.00
   7   1     0.25  -0.10   0.04    -0.35   0.14  -0.06    -0.07   0.35  -0.25
   8   1    -0.25   0.10   0.05     0.35  -0.14  -0.06    -0.07   0.35   0.25
   9   1    -0.00   0.00   0.41    -0.00  -0.00  -0.59    -0.13  -0.18  -0.00
  10   1    -0.01  -0.00  -0.00     0.02   0.02  -0.00    -0.02   0.05  -0.04
  11   1     0.01   0.02   0.00    -0.02  -0.01   0.00    -0.02   0.05   0.04
  12   1     0.01  -0.00  -0.00    -0.02  -0.00  -0.00     0.02   0.09   0.07
  13   1    -0.01   0.00   0.00     0.02  -0.00   0.00     0.02   0.09  -0.07
  14   1     0.01   0.01   0.01     0.01   0.01   0.00    -0.02  -0.10  -0.07
  15   1    -0.01   0.01  -0.01    -0.01   0.01  -0.01    -0.02  -0.10   0.07
  16   1    -0.01  -0.02   0.00    -0.01  -0.01   0.00     0.02  -0.05   0.04
  17   1     0.02   0.01  -0.00     0.01   0.01  -0.00     0.02  -0.05  -0.04
  18   1    -0.35   0.14   0.06    -0.24   0.10   0.05     0.07  -0.35  -0.26
  19   1     0.00  -0.00   0.59     0.00  -0.00   0.41     0.14   0.18   0.00
  20   1     0.35  -0.14   0.06     0.25  -0.10   0.04     0.07  -0.36   0.25
                     16                     17                     18
                        a                      a                      a 
 Frequencies --   926.1057              1507.8060              1200.1731
 Red. masses --    99.0000                99.0000                99.0000
 Frc consts  --    99.0000                99.0000                99.0000
 IR Inten    --    99.0000                99.0000                99.0000
 Raman Activ --     0.0000                 0.0000                 0.0000
 Depolar     --     0.0000                 0.0000                 0.0000
 Atom AN      X      Y      Z        X      Y      Z        X      Y      Z
   1   6    -0.00   0.00   0.14     0.07  -0.13   0.00    -0.00  -0.00  -0.20
   2   6    -0.00   0.00   0.01     0.03  -0.09   0.00     0.00   0.00   0.32
   3   6     0.00  -0.00  -0.22    -0.01  -0.03   0.00     0.00   0.00  -0.33
   4   6     0.00  -0.00   0.22    -0.01  -0.03   0.00     0.00   0.00   0.33
   5   6     0.00   0.00  -0.01     0.03  -0.08  -0.00     0.00  -0.00  -0.32
   6   6    -0.00   0.00  -0.14     0.07  -0.13  -0.00    -0.00  -0.00   0.20
   7   1     0.23   0.15  -0.09    -0.07   0.35  -0.25    -0.16  -0.12   0.05
   8   1    -0.23  -0.15  -0.09    -0.07   0.35   0.25     0.16   0.12   0.05
   9   1    -0.00  -0.00  -0.12    -0.14  -0.18  -0.00    -0.00  -0.00   0.09
  10   1     0.25  -0.01  -0.01    -0.02   0.10  -0.08     0.01   0.18  -0.06
  11   1    -0.25   0.01  -0.01    -0.02   0.10   0.08    -0.01  -0.18  -0.06
  12   1    -0.11   0.20   0.09     0.01   0.07   0.05     0.04   0.19   0.06
  13   1     0.11  -0.20   0.09     0.01   0.07  -0.05    -0.04  -0.19   0.07
  14   1     0.11  -0.20  -0.09     0.01   0.06   0.05    -0.04  -0.19  -0.06
  15   1    -0.11   0.20  -0.09     0.01   0.06  -0.05     0.04   0.19  -0.06
  16   1    -0.25   0.01   0.01    -0.02   0.10  -0.08    -0.01  -0.19   0.06
  17   1     0.25  -0.01   0.01    -0.02   0.10   0.08     0.01   0.18   0.06
  18   1     0.23   0.15   0.09    -0.07   0.34   0.25    -0.16  -0.12  -0.05
  19   1    -0.00  -0.00   0.12    -0.13  -0.18  -0.00    -0.00  -0.00  -0.09
  20   1    -0.23  -0.15   0.09    -0.07   0.34  -0.24     0.16   0.12  -0.05
                     19                     20                     21
                        a                      a                      a 
 Frequencies --  1003.9861              1495.8235              1500.1283
 Red. masses --    99.0000                99.0000                99.0000
 Frc consts  --    99.0000                99.0000                99.0000
 IR Inten    --    99.0000                99.0000                99.0000
 Raman Activ --     0.0000                 0.0000                 0.0000
 Depolar     --     0.0000                 0.0000                 0.0000
 Atom AN      X      Y      Z        X      Y      Z        X      Y      Z
   1   6     0.00   0.00   0.13    -0.00   0.04   0.00     0.01  -0.04  -0.00
   2   6     0.00  -0.00  -0.14    -0.03  -0.13   0.00     0.04   0.11  -0.00
   3   6     0.00   0.00   0.05    -0.04  -0.14   0.00     0.00   0.17  -0.00
   4   6     0.00  -0.00   0.05     0.04   0.15  -0.00     0.00   0.17  -0.00
   5   6    -0.00   0.00  -0.14     0.03   0.13   0.00     0.04   0.11  -0.00
   6   6    -0.00   0.00   0.13     0.00  -0.04  -0.00     0.01  -0.04  -0.00
   7   1     0.17   0.11  -0.06     0.01  -0.11   0.08    -0.01   0.12  -0.08
   8   1    -0.17  -0.11  -0.06     0.01  -0.11  -0.08    -0.01   0.12   0.08
   9   1     0.00   0.00  -0.08     0.03   0.04  -0.00    -0.04  -0.05   0.00
  10   1     0.23  -0.12   0.04     0.03   0.24  -0.18    -0.03  -0.22   0.16
  11   1    -0.24   0.12   0.04     0.03   0.24   0.18    -0.03  -0.22  -0.16
  12   1    -0.34  -0.02  -0.02     0.04   0.27   0.20    -0.02  -0.29  -0.22
  13   1     0.33   0.02  -0.02     0.04   0.27  -0.20    -0.02  -0.29   0.22
  14   1    -0.33  -0.02  -0.02    -0.04  -0.28  -0.21    -0.02  -0.29  -0.22
  15   1     0.34   0.02  -0.02    -0.04  -0.28   0.21    -0.02  -0.29   0.22
  16   1     0.24  -0.12   0.04    -0.03  -0.24   0.18    -0.03  -0.22   0.16
  17   1    -0.23   0.12   0.04    -0.03  -0.24  -0.18    -0.03  -0.21  -0.16
  18   1    -0.16  -0.11  -0.06    -0.01   0.11   0.08    -0.02   0.12   0.09
  19   1    -0.00  -0.00  -0.08    -0.03  -0.04   0.00    -0.04  -0.05   0.01
  20   1     0.17   0.11  -0.06    -0.01   0.11  -0.08    -0.01   0.12  -0.08
                     22                     23                     24
                        a                      a                      a 
 Frequencies --   942.0185              1496.4361               940.0485
 Red. masses --    99.0000                99.0000                99.0000
 Frc consts  --    99.0000                99.0000                99.0000
 IR Inten    --    99.0000                99.0000                99.0000
 Raman Activ --     0.0000                 0.0000                 0.0000
 Depolar     --     0.0000                 0.0000                 0.0000
 Atom AN      X      Y      Z        X      Y      Z        X      Y      Z
   1   6     0.30  -0.05   0.00    -0.01  -0.02   0.00     0.20  -0.12  -0.00
   2   6     0.03  -0.24   0.00    -0.01   0.15  -0.00     0.06  -0.16   0.00
   3   6    -0.26   0.20  -0.00     0.01  -0.13   0.00    -0.04   0.33   0.00
   4   6    -0.26   0.20   0.00     0.02  -0.12   0.00     0.04  -0.33  -0.00
   5   6     0.03  -0.24  -0.00    -0.01   0.15   0.00    -0.06   0.16   0.00
   6   6     0.30  -0.05  -0.00    -0.01  -0.02   0.00    -0.20   0.12   0.00
   7   1    -0.13   0.04  -0.01     0.01   0.05  -0.04    -0.19   0.02  -0.01
   8   1    -0.13   0.03   0.01     0.01   0.05   0.04    -0.19   0.02   0.02
   9   1     0.31   0.27  -0.00    -0.00  -0.00  -0.00     0.31   0.29   0.00
  10   1    -0.07  -0.06   0.00    -0.01  -0.29   0.22    -0.11  -0.03  -0.00
  11   1    -0.07  -0.06  -0.00    -0.01  -0.29  -0.22    -0.10  -0.03   0.00
  12   1    -0.09   0.06   0.00    -0.00   0.24   0.18    -0.07   0.09  -0.00
  13   1    -0.09   0.05  -0.00    -0.00   0.24  -0.18    -0.07   0.09   0.00
  14   1    -0.09   0.05   0.00    -0.01   0.24   0.17     0.07  -0.09   0.00
  15   1    -0.09   0.06  -0.00    -0.01   0.23  -0.17     0.07  -0.09  -0.00
  16   1    -0.07  -0.06   0.00    -0.01  -0.30   0.22     0.10   0.03   0.00
  17   1    -0.07  -0.06  -0.00    -0.01  -0.30  -0.22     0.11   0.03  -0.00
  18   1    -0.13   0.03   0.01     0.02   0.05   0.04     0.19  -0.02  -0.02
  19   1     0.31   0.27   0.00    -0.00  -0.00  -0.00    -0.31  -0.29  -0.00
  20   1    -0.13   0.03  -0.01     0.01   0.06  -0.04     0.19  -0.02   0.02
                     25                     26                     27
                        a                      a                      a 
 Frequencies --  1229.8780              1502.5955              1079.9051
 Red. masses --    99.0000                99.0000                99.0000
 Frc consts  --    99.0000                99.0000                99.0000
 IR Inten    --    99.0000                99.0000                99.0000
 Raman Activ --     0.0000                 0.0000                 0.0000
 Depolar     --     0.0000                 0.0000                 0.0000
 Atom AN      X      Y      Z        X      Y      Z        X      Y      Z
   1   6    -0.00   0.00   0.25     0.02  -0.00  -0.00    -0.13  -0.31   0.00
   2   6     0.00  -0.00  -0.30     0.00  -0.15   0.00     0.21   0.34  -0.00
   3   6     0.00   0.00   0.10     0.00   0.12  -0.00     0.12  -0.10   0.00
   4   6     0.00   0.00   0.10    -0.00  -0.12   0.00     0.12  -0.10   0.00
   5   6     0.00   0.00  -0.30    -0.00   0.15   0.00     0.21   0.34   0.00
   6   6    -0.00  -0.00   0.25    -0.02   0.00   0.01    -0.13  -0.31  -0.00
   7   1     0.18   0.14  -0.06    -0.02   0.01  -0.01    -0.24  -0.04  -0.01
   8   1    -0.18  -0.14  -0.06    -0.02   0.01   0.01    -0.24  -0.04   0.01
   9   1    -0.00  -0.00  -0.10    -0.02  -0.03   0.00     0.13   0.13  -0.00
  10   1    -0.19  -0.15   0.05     0.01   0.29  -0.22    -0.04   0.10   0.00
  11   1     0.19   0.15   0.05     0.01   0.29   0.22    -0.04   0.10  -0.00
  12   1     0.21  -0.07  -0.02    -0.01  -0.25  -0.19    -0.12  -0.01   0.00
  13   1    -0.21   0.07  -0.02    -0.01  -0.25   0.19    -0.12  -0.01  -0.00
  14   1     0.21  -0.07  -0.02     0.01   0.25   0.18    -0.12  -0.01   0.00
  15   1    -0.21   0.07  -0.02     0.02   0.25  -0.19    -0.12  -0.01  -0.00
  16   1    -0.19  -0.15   0.05    -0.00  -0.29   0.22    -0.04   0.10   0.00
  17   1     0.19   0.15   0.05    -0.01  -0.29  -0.22    -0.04   0.10   0.00
  18   1    -0.18  -0.14  -0.06     0.03  -0.01  -0.01    -0.24  -0.04   0.01
  19   1    -0.00   0.00  -0.10     0.02   0.03  -0.02     0.13   0.13   0.00
  20   1     0.18   0.14  -0.06     0.01  -0.00   0.00    -0.24  -0.04  -0.01
                     28                     29                     30
                        a                      a                      a 
 Frequencies --  1074.4854              1268.6787              1108.5432
 Red. masses --    99.0000                99.0000                99.0000
 Frc consts  --    99.0000                99.0000                99.0000
 IR Inten    --    99.0000                99.0000                99.0000
 Raman Activ --     0.0000                 0.0000                 0.0000
 Depolar     --     0.0000                 0.0000                 0.0000
 Atom AN      X      Y      Z        X      Y      Z        X      Y      Z
   1   6     0.29   0.20  -0.00    -0.00   0.00  -0.17     0.12   0.15  -0.00
   2   6    -0.33  -0.19   0.00     0.00  -0.00   0.01    -0.26  -0.01  -0.00
   3   6    -0.31  -0.23   0.00     0.00   0.00   0.20     0.42   0.14  -0.00
   4   6     0.31   0.23  -0.00     0.00   0.00  -0.20    -0.42  -0.14   0.00
   5   6     0.33   0.18   0.00     0.00  -0.00  -0.01     0.26   0.01   0.00
   6   6    -0.29  -0.20  -0.00    -0.00   0.00   0.17    -0.12  -0.15  -0.00
   7   1     0.11   0.05  -0.00    -0.11  -0.09   0.03     0.08   0.04  -0.00
   8   1     0.11   0.05   0.00     0.11   0.09   0.03     0.08   0.04  -0.00
   9   1     0.07   0.04  -0.00    -0.00  -0.00   0.05     0.00   0.00  -0.00
  10   1    -0.10  -0.05   0.00     0.42  -0.02  -0.00    -0.18   0.01  -0.00
  11   1    -0.10  -0.06  -0.00    -0.42   0.02  -0.00    -0.18   0.01   0.00
  12   1    -0.09  -0.07  -0.00     0.04  -0.11  -0.03     0.25   0.03  -0.00
  13   1    -0.09  -0.07   0.00    -0.04   0.11  -0.03     0.25   0.03  -0.00
  14   1     0.09   0.07   0.00    -0.04   0.11   0.03    -0.25  -0.03   0.00
  15   1     0.09   0.07  -0.00     0.04  -0.11   0.03    -0.24  -0.03   0.00
  16   1     0.10   0.05  -0.00    -0.42   0.02  -0.00     0.18  -0.01   0.00
  17   1     0.10   0.06   0.00     0.42  -0.02   0.00     0.18  -0.01  -0.00
  18   1    -0.11  -0.05  -0.00    -0.11  -0.09  -0.03    -0.08  -0.04  -0.00
  19   1    -0.07  -0.04  -0.00    -0.00  -0.00  -0.05    -0.00  -0.00  -0.00
  20   1    -0.11  -0.05   0.00     0.11   0.09  -0.03    -0.08  -0.04  -0.00
                     31                     32                     33
                        a                      a                      a 
 Frequencies --  1118.8401              1150.1326              1292.9555
 Red. masses --    99.0000                99.0000                99.0000
 Frc consts  --    99.0000                99.0000                99.0000
 IR Inten    --    99.0000                99.0000                99.0000
 Raman Activ --     0.0000                 0.0000                 0.0000
 Depolar     --     0.0000                 0.0000                 0.0000
 Atom AN      X      Y      Z        X      Y      Z        X      Y      Z
   1   6     0.22   0.08  -0.00    -0.06   0.19  -0.00    -0.00   0.00   0.09
   2   6    -0.37   0.11  -0.00     0.07  -0.37   0.00     0.00  -0.00   0.10
   3   6     0.25  -0.23   0.00    -0.06   0.38  -0.00     0.00  -0.00  -0.18
   4   6     0.25  -0.23   0.00     0.06  -0.38   0.00     0.00   0.00  -0.18
   5   6    -0.37   0.11  -0.00    -0.07   0.37   0.00    -0.00   0.00   0.10
   6   6     0.22   0.08   0.00     0.06  -0.19  -0.00     0.00  -0.00   0.09
   7   1     0.00   0.05  -0.01     0.17  -0.00   0.02     0.06   0.04  -0.01
   8   1     0.00   0.05   0.01     0.17  -0.00  -0.02    -0.06  -0.04  -0.01
   9   1     0.12   0.10  -0.00    -0.17  -0.15   0.00    -0.00  -0.00  -0.01
  10   1    -0.26   0.04   0.00     0.11  -0.10  -0.00    -0.37   0.07  -0.01
  11   1    -0.26   0.04  -0.00     0.11  -0.10   0.00     0.36  -0.07  -0.01
  12   1     0.04  -0.07  -0.01    -0.04   0.09  -0.00    -0.26   0.11   0.02
  13   1     0.04  -0.07   0.01    -0.04   0.09   0.00     0.26  -0.11   0.02
  14   1     0.04  -0.07  -0.01     0.04  -0.09   0.00    -0.26   0.11   0.02
  15   1     0.04  -0.07   0.01     0.04  -0.09  -0.00     0.26  -0.11   0.02
  16   1    -0.26   0.04  -0.00    -0.11   0.10   0.00    -0.36   0.08  -0.01
  17   1    -0.26   0.04  -0.00    -0.11   0.10  -0.00     0.36  -0.07  -0.01
  18   1     0.00   0.04   0.01    -0.17   0.00   0.02    -0.06  -0.04  -0.01
  19   1     0.11   0.10   0.00     0.17   0.15   0.00    -0.00   0.00  -0.01
  20   1     0.00   0.05  -0.01    -0.17   0.00  -0.02     0.06   0.04  -0.01
                     34                     35                     36
                        a                      a                      a 
 Frequencies --  1283.7228              1260.4579              1319.5608
 Red. masses --    99.0000                99.0000                99.0000
 Frc consts  --    99.0000                99.0000                99.0000
 IR Inten    --    99.0000                99.0000                99.0000
 Raman Activ --     0.0000                 0.0000                 0.0000
 Depolar     --     0.0000                 0.0000                 0.0000
 Atom AN      X      Y      Z        X      Y      Z        X      Y      Z
   1   6     0.00  -0.00  -0.05    -0.04   0.13   0.00    -0.04   0.12  -0.00
   2   6    -0.00   0.00   0.14     0.15  -0.17  -0.00     0.28  -0.06   0.00
   3   6     0.00   0.00   0.14     0.21   0.06  -0.00     0.15  -0.10   0.00
   4   6    -0.00  -0.00  -0.15     0.21   0.06   0.00    -0.15   0.10   0.00
   5   6     0.00  -0.00  -0.14     0.15  -0.17   0.00    -0.28   0.06  -0.00
   6   6    -0.00   0.00   0.05    -0.04   0.13  -0.00     0.04  -0.12  -0.00
   7   1    -0.03  -0.03   0.02     0.07  -0.01   0.02     0.01  -0.03   0.03
   8   1     0.03   0.03   0.02     0.07  -0.01  -0.02     0.01  -0.03  -0.03
   9   1     0.00   0.00   0.04    -0.11  -0.10  -0.00    -0.12  -0.11   0.00
  10   1    -0.03   0.07  -0.01    -0.19  -0.02  -0.01    -0.34   0.01  -0.00
  11   1     0.03  -0.07  -0.01    -0.18  -0.02   0.01    -0.34   0.01   0.00
  12   1    -0.47  -0.04  -0.02    -0.37   0.04  -0.00    -0.22   0.01   0.01
  13   1     0.47   0.04  -0.02    -0.37   0.04   0.00    -0.22   0.01  -0.01
  14   1     0.46   0.04   0.02    -0.37   0.04  -0.00     0.23  -0.02  -0.01
  15   1    -0.47  -0.04   0.02    -0.37   0.04   0.00     0.22  -0.01   0.01
  16   1     0.03  -0.07   0.01    -0.18  -0.02  -0.01     0.35  -0.01   0.00
  17   1    -0.03   0.07   0.01    -0.19  -0.02   0.01     0.34  -0.01  -0.00
  18   1    -0.03  -0.03  -0.02     0.07  -0.01  -0.02    -0.01   0.03   0.04
  19   1    -0.00  -0.00  -0.04    -0.11  -0.10   0.00     0.12   0.11   0.00
  20   1     0.03   0.03  -0.02     0.07  -0.01   0.02    -0.01   0.03  -0.03
                     37                     38                     39
                        a                      a                      a 
 Frequencies --  1364.0855              1379.4204              1415.9753
 Red. masses --    99.0000                99.0000                99.0000
 Frc consts  --    99.0000                99.0000                99.0000
 IR Inten    --    99.0000                99.0000                99.0000
 Raman Activ --     0.0000                 0.0000                 0.0000
 Depolar     --     0.0000                 0.0000                 0.0000
 Atom AN      X      Y      Z        X      Y      Z        X      Y      Z
   1   6     0.03  -0.08   0.00    -0.05   0.02  -0.00     0.28   0.15  -0.00
   2   6    -0.34  -0.00   0.00     0.24   0.01  -0.00    -0.05   0.01  -0.00
   3   6     0.20   0.04  -0.00    -0.39   0.04   0.00    -0.02   0.02  -0.00
   4   6     0.20   0.04  -0.00     0.39  -0.04  -0.00     0.02  -0.02  -0.00
   5   6    -0.34  -0.00  -0.00    -0.24  -0.01  -0.00     0.04  -0.01   0.00
   6   6     0.03  -0.08  -0.00     0.05  -0.02  -0.00    -0.26  -0.14  -0.00
   7   1     0.02   0.04  -0.04     0.01  -0.02   0.02    -0.35  -0.10   0.11
   8   1     0.02   0.04   0.04     0.01  -0.02  -0.02    -0.35  -0.10  -0.11
   9   1     0.09   0.09  -0.00    -0.02  -0.01   0.00    -0.23  -0.30   0.00
  10   1     0.33  -0.01  -0.01    -0.19   0.00   0.01     0.05  -0.03   0.02
  11   1     0.33  -0.01   0.01    -0.19   0.00  -0.01     0.05  -0.03  -0.02
  12   1    -0.21   0.00  -0.02     0.32  -0.02  -0.01     0.03   0.00  -0.00
  13   1    -0.21   0.00   0.02     0.33  -0.02   0.01     0.03   0.00   0.00
  14   1    -0.21   0.00  -0.02    -0.33   0.02   0.01    -0.03  -0.00   0.00
  15   1    -0.21   0.00   0.02    -0.33   0.02  -0.00    -0.03  -0.00  -0.00
  16   1     0.33  -0.01  -0.01     0.19  -0.00  -0.01    -0.04   0.03  -0.02
  17   1     0.33  -0.01   0.01     0.19  -0.00   0.01    -0.04   0.03   0.02
  18   1     0.02   0.04   0.04    -0.01   0.02   0.02     0.32   0.09   0.10
  19   1     0.09   0.09   0.00     0.03   0.01   0.00     0.21   0.28   0.00
  20   1     0.02   0.04  -0.04    -0.01   0.02  -0.02     0.32   0.09  -0.10
                     40                     41                     42
                        a                      a                      a 
 Frequencies --  1416.1193              2955.3257              2960.3879
 Red. masses --    99.0000                99.0000                99.0000
 Frc consts  --    99.0000                99.0000                99.0000
 IR Inten    --    99.0000                99.0000                99.0000
 Raman Activ --     0.0000                 0.0000                 0.0000
 Depolar     --     0.0000                 0.0000                 0.0000
 Atom AN      X      Y      Z        X      Y      Z        X      Y      Z
   1   6     0.26   0.13  -0.00     0.00  -0.00   0.00    -0.00  -0.00  -0.01
   2   6    -0.07   0.01  -0.00    -0.00  -0.00  -0.08    -0.00   0.00   0.16
   3   6     0.02   0.01   0.00     0.00   0.00   0.19    -0.00  -0.00  -0.13
   4   6     0.02   0.01   0.00    -0.00  -0.00  -0.19    -0.00   0.00  -0.13
   5   6    -0.07   0.01  -0.00    -0.00  -0.00   0.08    -0.00  -0.00   0.16
   6   6     0.29   0.14   0.00     0.00   0.00  -0.00     0.00   0.00  -0.01
   7   1    -0.32  -0.09   0.10    -0.00  -0.01  -0.01     0.00   0.02   0.03
   8   1    -0.32  -0.09  -0.10     0.00   0.01  -0.01    -0.00  -0.02   0.03
   9   1    -0.21  -0.27   0.00    -0.00   0.00   0.00     0.00  -0.00  -0.00
  10   1     0.06  -0.03   0.02     0.01   0.11   0.15    -0.01  -0.22  -0.29
  11   1     0.06  -0.03  -0.02    -0.01  -0.11   0.15     0.01   0.22  -0.29
  12   1    -0.02   0.01   0.00     0.02   0.27  -0.35    -0.01  -0.18   0.24
  13   1    -0.02   0.01  -0.00    -0.02  -0.27  -0.35     0.01   0.19   0.24
  14   1    -0.02   0.01   0.00    -0.02  -0.27   0.35    -0.01  -0.18   0.24
  15   1    -0.02   0.01  -0.00     0.02   0.27   0.35     0.01   0.18   0.24
  16   1     0.07  -0.03   0.02    -0.01  -0.11  -0.15    -0.01  -0.22  -0.29
  17   1     0.07  -0.03  -0.02     0.01   0.12  -0.15     0.01   0.22  -0.29
  18   1    -0.35  -0.10  -0.11    -0.00  -0.01   0.01    -0.00  -0.02   0.03
  19   1    -0.22  -0.30  -0.00    -0.00   0.00  -0.00    -0.00   0.00  -0.00
  20   1    -0.35  -0.10   0.11     0.00   0.01   0.01     0.00   0.02   0.03
                     43                     44                     45
                        a                      a                      a 
 Frequencies --  2968.7819              3030.7307              3030.2348
 Red. masses --    99.0000                99.0000                99.0000
 Frc consts  --    99.0000                99.0000                99.0000
 IR Inten    --    99.0000                99.0000                99.0000
 Raman Activ --     0.0000                 0.0000                 0.0000
 Depolar     --     0.0000                 0.0000                 0.0000
 Atom AN      X      Y      Z        X      Y      Z        X      Y      Z
   1   6    -0.00   0.00   0.02    -0.00   0.00   0.21     0.00  -0.00  -0.20
   2   6     0.00  -0.00  -0.19    -0.00   0.00   0.03    -0.00  -0.00  -0.03
   3   6    -0.00  -0.00  -0.09     0.00   0.00   0.01    -0.00  -0.00  -0.01
   4   6     0.00   0.00   0.08     0.00  -0.00   0.01     0.00  -0.00   0.01
   5   6    -0.00  -0.00   0.19    -0.00  -0.00   0.03    -0.00  -0.00   0.03
   6   6     0.00  -0.00  -0.02     0.00  -0.00   0.20     0.00  -0.00   0.21
   7   1    -0.00  -0.04  -0.05    -0.02  -0.29  -0.38     0.02   0.28   0.37
   8   1     0.00   0.04  -0.05     0.02   0.29  -0.38    -0.02  -0.28   0.37
   9   1     0.00  -0.00   0.00     0.00  -0.00   0.03    -0.00   0.00  -0.03
  10   1     0.02   0.26   0.35    -0.00  -0.04  -0.05     0.00   0.03   0.05
  11   1    -0.02  -0.26   0.35     0.00   0.04  -0.05    -0.00  -0.03   0.05
  12   1    -0.01  -0.11   0.15     0.00   0.02  -0.02     0.00  -0.01   0.01
  13   1     0.01   0.11   0.15    -0.00  -0.02  -0.02    -0.00   0.01   0.01
  14   1     0.01   0.11  -0.14     0.00   0.02  -0.02    -0.00   0.01  -0.01
  15   1    -0.01  -0.11  -0.15    -0.00  -0.02  -0.02     0.00  -0.01  -0.01
  16   1    -0.02  -0.26  -0.35    -0.00  -0.04  -0.05    -0.00  -0.03  -0.05
  17   1     0.02   0.27  -0.35     0.00   0.04  -0.05     0.00   0.03  -0.05
  18   1    -0.00  -0.04   0.05     0.02   0.29  -0.37     0.02   0.30  -0.38
  19   1    -0.00   0.00  -0.00    -0.00   0.00   0.03    -0.00   0.00   0.03
  20   1     0.00   0.04   0.05    -0.02  -0.28  -0.37    -0.02  -0.29  -0.38
                     46                     47                     48
                        a                      a                      a 
 Frequencies --  2978.2253              2975.5349              2975.3383
 Red. masses --    99.0000                99.0000                99.0000
 Frc consts  --    99.0000                99.0000                99.0000
 IR Inten    --    99.0000                99.0000                99.0000
 Raman Activ --     0.0000                 0.0000                 0.0000
 Depolar     --     0.0000                 0.0000                 0.0000
 Atom AN      X      Y      Z        X      Y      Z        X      Y      Z
   1   6    -0.00   0.00   0.02    -0.00   0.00  -0.00     0.00  -0.01  -0.00
   2   6    -0.00  -0.00  -0.13    -0.01  -0.10   0.00     0.00   0.01   0.00
   3   6     0.00   0.00  -0.17     0.01   0.12   0.00     0.01   0.13  -0.00
   4   6    -0.00   0.00  -0.17     0.01   0.09   0.00    -0.01  -0.15   0.00
   5   6     0.00  -0.00  -0.14    -0.01  -0.10   0.00     0.00   0.01   0.00
   6   6    -0.00   0.00   0.02    -0.00   0.00  -0.00    -0.00   0.01  -0.00
   7   1    -0.00  -0.04  -0.05    -0.00  -0.00  -0.01     0.00   0.01   0.02
   8   1     0.00   0.04  -0.05    -0.00  -0.01   0.01     0.00   0.01  -0.02
   9   1     0.00  -0.00   0.00     0.01  -0.01  -0.00    -0.01   0.01  -0.00
  10   1     0.01   0.19   0.24     0.01   0.19   0.29    -0.00  -0.01  -0.02
  11   1    -0.01  -0.18   0.23     0.01   0.19  -0.30    -0.00  -0.01   0.02
  12   1    -0.02  -0.22   0.30    -0.01  -0.21   0.32    -0.02  -0.25   0.38
  13   1     0.02   0.22   0.28    -0.01  -0.22  -0.33    -0.02  -0.25  -0.38
  14   1    -0.01  -0.22   0.29    -0.01  -0.16   0.25     0.02   0.28  -0.44
  15   1     0.02   0.22   0.29    -0.01  -0.17  -0.25     0.02   0.28   0.43
  16   1     0.01   0.18   0.24     0.01   0.18   0.28     0.00  -0.02  -0.03
  17   1    -0.01  -0.18   0.23     0.01   0.19  -0.29     0.00  -0.02   0.03
  18   1     0.00   0.04  -0.05    -0.00  -0.01   0.01    -0.00  -0.01   0.02
  19   1     0.00  -0.00   0.00     0.01  -0.01  -0.00     0.01  -0.01  -0.00
  20   1    -0.00  -0.04  -0.05    -0.00  -0.01  -0.01    -0.00  -0.01  -0.02
                     49                     50                     51
                        a                      a                      a 
 Frequencies --  3032.4109              3032.9911              2981.6199
 Red. masses --    99.0000                99.0000                99.0000
 Frc consts  --    99.0000                99.0000                99.0000
 IR Inten    --    99.0000                99.0000                99.0000
 Raman Activ --     0.0000                 0.0000                 0.0000
 Depolar     --     0.0000                 0.0000                 0.0000
 Atom AN      X      Y      Z        X      Y      Z        X      Y      Z
   1   6     0.09  -0.18   0.00     0.09  -0.18   0.00     0.01  -0.02   0.00
   2   6     0.00  -0.02   0.00     0.00  -0.02   0.00     0.01   0.14  -0.00
   3   6    -0.00  -0.01   0.00    -0.00  -0.01   0.00    -0.00   0.01  -0.00
   4   6     0.00   0.01   0.00    -0.00  -0.01  -0.00     0.00  -0.01  -0.00
   5   6    -0.00   0.02   0.00     0.00  -0.02  -0.00    -0.01  -0.15  -0.00
   6   6    -0.09   0.18   0.00     0.09  -0.18  -0.00    -0.01   0.02   0.00
   7   1     0.03   0.17   0.28     0.03   0.16   0.26     0.00   0.02   0.03
   8   1     0.03   0.17  -0.29     0.03   0.16  -0.27     0.00   0.02  -0.03
   9   1    -0.38   0.30  -0.00    -0.39   0.32  -0.00    -0.04   0.03  -0.00
  10   1     0.00   0.03   0.04     0.00   0.03   0.05    -0.02  -0.27  -0.41
  11   1     0.00   0.03  -0.04     0.00   0.03  -0.05    -0.02  -0.26   0.41
  12   1    -0.00   0.01  -0.02     0.00   0.02  -0.04     0.00  -0.00   0.00
  13   1    -0.00   0.01   0.02     0.00   0.02   0.04     0.00  -0.00  -0.00
  14   1     0.00  -0.01   0.02     0.00   0.02  -0.04    -0.00  -0.00   0.00
  15   1     0.00  -0.01  -0.02     0.00   0.02   0.04    -0.00   0.00   0.00
  16   1    -0.00  -0.03  -0.04     0.00   0.03   0.05     0.02   0.27   0.41
  17   1    -0.00  -0.03   0.04     0.00   0.03  -0.05     0.02   0.27  -0.41
  18   1    -0.03  -0.17   0.28     0.03   0.16  -0.26    -0.00  -0.02   0.03
  19   1     0.37  -0.30  -0.00    -0.39   0.31   0.00     0.04  -0.03  -0.00
  20   1    -0.03  -0.17  -0.29     0.03   0.16   0.27    -0.00  -0.02  -0.03
                     52                     53                     54
                        a                      a                      a 
 Frequencies --  2988.6967              3037.7398              3038.5162
 Red. masses --    99.0000                99.0000                99.0000
 Frc consts  --    99.0000                99.0000                99.0000
 IR Inten    --    99.0000                99.0000                99.0000
 Raman Activ --     0.0000                 0.0000                 0.0000
 Depolar     --     0.0000                 0.0000                 0.0000
 Atom AN      X      Y      Z        X      Y      Z        X      Y      Z
   1   6     0.01  -0.03   0.00    -0.10  -0.03   0.00     0.10   0.02  -0.00
   2   6     0.01   0.10  -0.00    -0.00  -0.01   0.00     0.00   0.00  -0.00
   3   6     0.01   0.11  -0.00     0.00  -0.00   0.00    -0.00   0.00  -0.00
   4   6     0.01   0.11  -0.00     0.00  -0.00  -0.00     0.00  -0.00  -0.00
   5   6     0.01   0.10  -0.00    -0.00  -0.01  -0.00    -0.00  -0.00  -0.00
   6   6     0.01  -0.03   0.00    -0.10  -0.03  -0.00    -0.10  -0.02  -0.00
   7   1     0.00   0.03   0.05     0.01   0.21   0.31    -0.01  -0.20  -0.29
   8   1     0.00   0.03  -0.05     0.01   0.21  -0.31    -0.01  -0.20   0.29
   9   1    -0.05   0.04  -0.00     0.34  -0.30   0.00    -0.36   0.32  -0.00
  10   1    -0.01  -0.18  -0.28    -0.00   0.01   0.01     0.00  -0.00  -0.00
  11   1    -0.01  -0.18   0.28    -0.00   0.01  -0.01     0.00  -0.00   0.00
  12   1    -0.01  -0.19   0.29     0.00   0.01  -0.01     0.00  -0.00   0.01
  13   1    -0.01  -0.19  -0.29     0.00   0.01   0.01     0.00  -0.00  -0.01
  14   1    -0.01  -0.19   0.29     0.00   0.01  -0.01    -0.00   0.00  -0.01
  15   1    -0.01  -0.19  -0.29     0.00   0.01   0.01    -0.00   0.00   0.01
  16   1    -0.01  -0.18  -0.28    -0.00   0.01   0.01    -0.00   0.00   0.00
  17   1    -0.01  -0.19   0.28    -0.00   0.01  -0.01    -0.00   0.00  -0.00
  18   1     0.00   0.03  -0.05     0.01   0.21  -0.30     0.00   0.21  -0.29
  19   1    -0.05   0.04   0.00     0.35  -0.30  -0.00     0.36  -0.32  -0.00
  20   1     0.00   0.03   0.05     0.01   0.21   0.31     0.01   0.20   0.29
