      -----------------------------------------------------------      
     |                   =====================                   |     
     |                           x T B                           |     
     |                   =====================                   |     
     |                         S. Grimme                         |     
     |          Mulliken Center for Theoretical Chemistry        |     
     |                    University of Bonn                     |     
      -----------------------------------------------------------      

   * xtb version 6.6.1 (8d0f1dd) compiled by 'stahn@M-Bot' on 2023-08-01

   xtb is free software: you can redistribute it and/or modify it under
   the terms of the GNU Lesser General Public License as published by
   the Free Software Foundation, either version 3 of the License, or
   (at your option) any later version.
   
   xtb is distributed in the hope that it will be useful,
   but WITHOUT ANY WARRANTY; without even the implied warranty of
   MERCHANTABILITY or FITNESS FOR A PARTICULAR PURPOSE.  See the
   GNU Lesser General Public License for more details.
   
   Cite this work as:
   * C. Bannwarth, E. Caldeweyher, S. Ehlert, A. Hansen, P. Pracht,
     J. Seibert, S. Spicher, S. Grimme, WIREs Comput. Mol. Sci., 2020, 11,
     e01493. DOI: 10.1002/wcms.1493
   
   for GFN2-xTB:
   * C. Bannwarth, S. Ehlert and S. Grimme., J. Chem. Theory Comput., 2019,
     15, 1652-1671. DOI: 10.1021/acs.jctc.8b01176
   for GFN1-xTB:
   * S. Grimme, C. Bannwarth, P. Shushkov, J. Chem. Theory Comput., 2017,
     13, 1989-2009. DOI: 10.1021/acs.jctc.7b00118
   for GFN0-xTB:
   * P. Pracht, E. Caldeweyher, S. Ehlert, S. Grimme, ChemRxiv, 2019, preprint.
     DOI: 10.26434/chemrxiv.8326202.v1
   for GFN-FF:
   * S. Spicher and S. Grimme, Angew. Chem. Int. Ed., 2020, 59, 15665-15673.
     DOI: 10.1002/anie.202004239
   
   for ALPB and GBSA implicit solvation:
   * S. Ehlert, M. Stahn, S. Spicher, S. Grimme, J. Chem. Theory Comput.,
     2021, 17, 4250-4261. DOI: 10.1021/acs.jctc.1c00471
   
   for DFT-D4:
   * E. Caldeweyher, C. Bannwarth and S. Grimme, J. Chem. Phys., 2017,
     147, 034112. DOI: 10.1063/1.4993215
   * E. Caldeweyher, S. Ehlert, A. Hansen, H. Neugebauer, S. Spicher,
     C. Bannwarth and S. Grimme, J. Chem. Phys., 2019, 150, 154122.
     DOI: 10.1063/1.5090222
   * E. Caldeweyher, J.-M. Mewes, S. Ehlert and S. Grimme, Phys. Chem. Chem. Phys.
     2020, 22, 8499-8512. DOI: 10.1039/D0CP00502A
   
   for sTDA-xTB:
   * S. Grimme and C. Bannwarth, J. Chem. Phys., 2016, 145, 054103.
     DOI: 10.1063/1.4959605
   
   in the mass-spec context:
   * V. Asgeirsson, C. Bauer and S. Grimme, Chem. Sci., 2017, 8, 4879.
     DOI: 10.1039/c7sc00601b
   * J. Koopman and S. Grimme, ACS Omega 2019, 4, 12, 15120-15133.
     DOI: 10.1021/acsomega.9b02011
   
   for metadynamics refer to:
   * S. Grimme, J. Chem. Theory Comput., 2019, 155, 2847-2862
     DOI: 10.1021/acs.jctc.9b00143
   
   for SPH calculations refer to:
   * S. Spicher and S. Grimme, J. Chem. Theory Comput., 2021, 17, 1701-1714
     DOI: 10.1021/acs.jctc.0c01306
   
   with help from (in alphabetical order)
   P. Atkinson, C. Bannwarth, F. Bohle, G. Brandenburg, E. Caldeweyher
   M. Checinski, S. Dohm, S. Ehlert, S. Ehrlich, I. Gerasimov, C. Hölzer
   A. Katbashev, J. Koopman, C. Lavigne, S. Lehtola, F. März, M. Müller,
   F. Musil, H. Neugebauer, J. Pisarek, C. Plett, P. Pracht, F. Pultar,
   J. Seibert, P. Shushkov, S. Spicher, M. Stahn, M. Steiner, T. Strunk,
   J. Stückrath, T. Rose, and J. Unsleber
   
 * started run on 2024/04/20 at 10:55:44.767     

           -------------------------------------------------
          |                Calculation Setup                |
           -------------------------------------------------

          program call               : xtb unfolded.xyz --gfn 2 --ohess -P 4
          coordinate file            : unfolded.xyz
          omp threads                :                     4

   ID    Z sym.   atoms
    1    6 C      1-6
    2    1 H      7-20

           -------------------------------------------------
          |                 G F N 2 - x T B                 |
           -------------------------------------------------

        Reference                      10.1021/acs.jctc.8b01176
      * Hamiltonian:
        H0-scaling (s, p, d)           1.850000    2.230000    2.230000
        zeta-weighting                 0.500000
      * Dispersion:
        s8                             2.700000
        a1                             0.520000
        a2                             5.000000
        s9                             5.000000
      * Repulsion:
        kExp                           1.500000    1.000000
        rExp                           1.000000
      * Coulomb:
        alpha                          2.000000
        third order                    shell-resolved
        anisotropic                    true
        a3                             3.000000
        a5                             4.000000
        cn-shift                       1.200000
        cn-exp                         4.000000
        max-rad                        5.000000


          ...................................................
          :                      SETUP                      :
          :.................................................:
          :  # basis functions                  38          :
          :  # atomic orbitals                  38          :
          :  # shells                           26          :
          :  # electrons                        38          :
          :  max. iterations                   250          :
          :  Hamiltonian                  GFN2-xTB          :
          :  restarted?                      false          :
          :  GBSA solvation                  false          :
          :  PC potential                    false          :
          :  electronic temp.          300.0000000     K    :
          :  accuracy                    1.0000000          :
          :  -> integral cutoff          0.2500000E+02      :
          :  -> integral neglect         0.1000000E-07      :
          :  -> SCF convergence          0.1000000E-05 Eh   :
          :  -> wf. convergence          0.1000000E-03 e    :
          :  Broyden damping             0.4000000          :
          ...................................................

 iter      E             dE          RMSdq      gap      omega  full diag
   1    -20.2320292 -0.202320E+02  0.259E+00   12.92       0.0  T
   2    -20.2875024 -0.554733E-01  0.141E+00   12.70       1.0  T
   3    -20.2881373 -0.634830E-03  0.748E-01   12.70       1.0  T
   4    -20.2882912 -0.153929E-03  0.878E-02   12.73       1.0  T
   5    -20.2882970 -0.581307E-05  0.475E-02   12.73       1.0  T
   6    -20.2882979 -0.851080E-06  0.220E-03   12.73      10.2  T
   7    -20.2882979 -0.273081E-07  0.993E-04   12.73      22.5  T
   8    -20.2882979 -0.890047E-09  0.213E-04   12.73     105.0  T

   *** convergence criteria satisfied after 8 iterations ***

         #    Occupation            Energy/Eh            Energy/eV
      -------------------------------------------------------------
         1        2.0000           -0.6201492             -16.8751
       ...           ...                  ...                  ...
        13        2.0000           -0.4633133             -12.6074
        14        2.0000           -0.4409013             -11.9975
        15        2.0000           -0.4394659             -11.9585
        16        2.0000           -0.4309062             -11.7256
        17        2.0000           -0.4221315             -11.4868
        18        2.0000           -0.4216768             -11.4744
        19        2.0000           -0.4148048             -11.2874 (HOMO)
        20                          0.0529254               1.4402 (LUMO)
        21                          0.1002967               2.7292
        22                          0.1187156               3.2304
        23                          0.1315870               3.5807
        24                          0.1419116               3.8616
       ...                                ...                  ...
        38                          0.3018416               8.2135
      -------------------------------------------------------------
                  HL-Gap            0.4677302 Eh           12.7276 eV
             Fermi-level           -0.1809397 Eh           -4.9236 eV

 SCC (total)                   0 d,  0 h,  0 min,  0.503 sec
 SCC setup                      ...        0 min,  0.063 sec ( 12.533%)
 Dispersion                     ...        0 min,  0.000 sec (  0.041%)
 classical contributions        ...        0 min,  0.000 sec (  0.020%)
 integral evaluation            ...        0 min,  0.077 sec ( 15.225%)
 iterations                     ...        0 min,  0.322 sec ( 64.027%)
 molecular gradient             ...        0 min,  0.038 sec (  7.484%)
 printout                       ...        0 min,  0.003 sec (  0.660%)

         :::::::::::::::::::::::::::::::::::::::::::::::::::::
         ::                     SUMMARY                     ::
         :::::::::::::::::::::::::::::::::::::::::::::::::::::
         :: total energy             -19.992653276689 Eh    ::
         :: gradient norm              0.022972438273 Eh/a0 ::
         :: HOMO-LUMO gap             12.727586323942 eV    ::
         ::.................................................::
         :: SCC energy               -20.288297893428 Eh    ::
         :: -> isotropic ES            0.003671242941 Eh    ::
         :: -> anisotropic ES          0.007074894704 Eh    ::
         :: -> anisotropic XC          0.012580994720 Eh    ::
         :: -> dispersion             -0.010364592733 Eh    ::
         :: repulsion energy           0.295665071402 Eh    ::
         :: add. restraining           0.000000000000 Eh    ::
         :: total charge              -0.000000000000 e     ::
         :::::::::::::::::::::::::::::::::::::::::::::::::::::

      ----------------------------------------------------------- 
     |                   =====================                   |
     |                        A N C O P T                        |
     |                   =====================                   |
     |               Approximate Normal Coordinate               |
     |                Rational Function Optimizer                |
      ----------------------------------------------------------- 

          ...................................................
          :                      SETUP                      :
          :.................................................:
          :   optimization level            normal          :
          :   max. optcycles                   200          :
          :   ANC micro-cycles                  20          :
          :   degrees of freedom                54          :
          :.................................................:
          :   RF solver                   davidson          :
          :   write xtbopt.log                true          :
          :   linear?                        false          :
          :   energy convergence         0.5000000E-05 Eh   :
          :   grad. convergence          0.1000000E-02 Eh/α :
          :   maxmium RF displ.          2.0000000          :
          :   Hlow (freq-cutoff)         0.2000000E-01      :
          :   Hmax (freq-cutoff)         5.0000000          :
          :   S6 in model hess.         70.0000000          :
          ...................................................

generating ANC from model Hessian ...
Using Lindh-Hessian (1995)
 Shifting diagonal of input Hessian by   1.704675268791877E-002
 Lowest  eigenvalues of input Hessian
    0.000000    0.000000    0.000000    0.000000    0.000000    0.000000
    0.020000    0.021173    0.022683    0.024849    0.029251    0.030523
    0.031995    0.034224    0.042362    0.059637    0.061678    0.064577
 Highest eigenvalues
    1.176425    1.180197    1.191084    1.240795    1.268008    1.323762
 

........................................................................
.............................. CYCLE    1 ..............................
........................................................................

 iter      E             dE          RMSdq      gap      omega  full diag
   1    -20.2882979 -0.202883E+02  0.713E-05   12.73       0.0  T
   2    -20.2882979 -0.322586E-11  0.401E-05   12.73     557.4  T
   3    -20.2882979 -0.824230E-12  0.608E-06   12.73    3679.3  T
     SCC iter.                  ...        0 min,  0.003 sec
     gradient                   ...        0 min,  0.002 sec
 * total energy  :   -19.9926533 Eh     change       -0.4910561E-10 Eh
   gradient norm :     0.0229728 Eh/α   predicted     0.0000000E+00 (-100.00%)
   displ. norm   :     0.1334696 α      lambda       -0.1623894E-02
   maximum displ.:     0.0873228 α      in ANC's #23, #16, #5, ...

........................................................................
.............................. CYCLE    2 ..............................
........................................................................

 iter      E             dE          RMSdq      gap      omega  full diag
   1    -20.2939384 -0.202939E+02  0.153E-01   12.93       0.0  T
   2    -20.2939412 -0.275570E-05  0.875E-02   12.93       1.0  T
   3    -20.2939416 -0.413909E-06  0.423E-03   12.93       5.3  T
   4    -20.2939416 -0.384043E-07  0.153E-03   12.93      14.6  T
   5    -20.2939416 -0.141052E-08  0.777E-04   12.93      28.8  T
   6    -20.2939416 -0.341153E-09  0.340E-05   12.93     657.1  T
     SCC iter.                  ...        0 min,  0.002 sec
     gradient                   ...        0 min,  0.001 sec
 * total energy  :   -19.9936992 Eh     change       -0.1045910E-02 Eh
   gradient norm :     0.0101458 Eh/α   predicted    -0.8264481E-03 ( -20.98%)
   displ. norm   :     0.0579762 α      lambda       -0.2464687E-03
   maximum displ.:     0.0342475 α      in ANC's #5, #23, #8, ...

........................................................................
.............................. CYCLE    3 ..............................
........................................................................

 iter      E             dE          RMSdq      gap      omega  full diag
   1    -20.2976138 -0.202976E+02  0.601E-02   13.01       0.0  T
   2    -20.2976154 -0.156566E-05  0.337E-02   13.01       1.0  T
   3    -20.2976154 -0.572023E-07  0.406E-03   13.01       5.5  T
   4    -20.2976154 -0.151602E-07  0.696E-04   13.01      32.1  T
   5    -20.2976154 -0.104613E-08  0.389E-04   13.01      57.5  T
     SCC iter.                  ...        0 min,  0.002 sec
     gradient                   ...        0 min,  0.001 sec
 * total energy  :   -19.9938321 Eh     change       -0.1328789E-03 Eh
   gradient norm :     0.0019484 Eh/α   predicted    -0.1237445E-03 (  -6.87%)
   displ. norm   :     0.0141987 α      lambda       -0.6703559E-05
   maximum displ.:     0.0127889 α      in ANC's #5, #16, #52, ...

........................................................................
.............................. CYCLE    4 ..............................
........................................................................

 iter      E             dE          RMSdq      gap      omega  full diag
   1    -20.2982961 -0.202983E+02  0.800E-03   13.02       0.0  T
   2    -20.2982962 -0.107732E-06  0.444E-03   13.02       5.0  T
   3    -20.2982962 -0.226643E-08  0.121E-03   13.02      18.4  T
   4    -20.2982962 -0.595470E-09  0.176E-04   13.02     127.4  T
   5    -20.2982962 -0.940616E-10  0.885E-05   13.02     252.6  T
     SCC iter.                  ...        0 min,  0.002 sec
     gradient                   ...        0 min,  0.001 sec
 * total energy  :   -19.9938367 Eh     change       -0.4622807E-05 Eh
   gradient norm :     0.0006115 Eh/α   predicted    -0.3355403E-05 ( -27.42%)
   displ. norm   :     0.0049779 α      lambda        0.1581113E-06
   maximum displ.:     0.0027480 α      in ANC's #8, #5, #16, ...

   *** GEOMETRY OPTIMIZATION CONVERGED AFTER 4 ITERATIONS ***

------------------------------------------------------------------------
 total energy gain   :        -0.0011834 Eh       -0.7426 kcal/mol
 total RMSD          :         0.0438169 a0        0.0232 Å
 total power (kW/mol):        -0.7767617 (step)  -17.0833 (real)
------------------------------------------------------------------------

 ANCopt (total)                0 d,  0 h,  0 min,  0.182 sec
 optimizer setup                ...        0 min,  0.021 sec ( 11.571%)
 model hessian                  ...        0 min,  0.034 sec ( 18.932%)
 ANC generation                 ...        0 min,  0.037 sec ( 20.338%)
 coordinate transformation      ...        0 min,  0.000 sec (  0.033%)
 single point calculation       ...        0 min,  0.022 sec ( 12.234%)
 optimization log               ...        0 min,  0.034 sec ( 18.519%)
 hessian update                 ...        0 min,  0.000 sec (  0.030%)
 rational function              ...        0 min,  0.030 sec ( 16.469%)

================
 final structure:
================
20
 xtb: 6.6.1 (8d0f1dd)
C            3.18281744742988        0.22251318705586       -0.00088495714157
C            1.86838603567191       -0.54860851673670        0.00054946050213
C            0.65971411078757        0.38440596121368       -0.00125800613015
C           -0.65961177640145       -0.38371988499261        0.00168517332198
C           -1.86869465053718        0.54875153349526        0.00218394110167
C           -3.18255132739321       -0.22335773772290       -0.00222974958754
H            3.25371141572029        0.85738675293464        0.87967507945633
H            3.25362666030252        0.85436571695868       -0.88361793411124
H            4.02817659320153       -0.46173966124514        0.00025885603088
H            1.82615820911134       -1.19402473542661       -0.87971937971679
H            1.82612447424656       -1.19061676200118        0.88330725167677
H            0.70170270086748        1.02619101428366       -0.88452591967485
H            0.70287295048845        1.03108069067140        0.87839147602677
H           -0.70080483919984       -1.02671916124234        0.88411495363635
H           -0.70325992949710       -1.02923186643471       -0.87879609707003
H           -1.82830098163300        1.19004423945187        0.88554302475387
H           -1.82544197442827        1.19491109331798       -0.87748775927333
H           -3.25178157270517       -0.86361312379237        0.87456197562796
H           -4.02850366074799        0.46013084839190        0.00407695118418
H           -3.25392788528431       -0.84994058818036       -0.88866634061340
           -------------------------------------------------
          |                Final Singlepoint                |
           -------------------------------------------------

          ...................................................
          :                      SETUP                      :
          :.................................................:
          :  # basis functions                  38          :
          :  # atomic orbitals                  38          :
          :  # shells                           26          :
          :  # electrons                        38          :
          :  max. iterations                   250          :
          :  Hamiltonian                  GFN2-xTB          :
          :  restarted?                      false          :
          :  GBSA solvation                  false          :
          :  PC potential                    false          :
          :  electronic temp.          300.0000000     K    :
          :  accuracy                    1.0000000          :
          :  -> integral cutoff          0.2500000E+02      :
          :  -> integral neglect         0.1000000E-07      :
          :  -> SCF convergence          0.1000000E-05 Eh   :
          :  -> wf. convergence          0.1000000E-03 e    :
          :  Broyden damping             0.4000000          :
          ...................................................

 iter      E             dE          RMSdq      gap      omega  full diag
   1    -20.2982962 -0.202983E+02  0.107E-05   13.02       0.0  T
   2    -20.2982962 -0.117240E-12  0.580E-06   13.02    3855.6  T
   3    -20.2982962 -0.248690E-13  0.107E-06   13.02   20944.7  T

   *** convergence criteria satisfied after 3 iterations ***

         #    Occupation            Energy/Eh            Energy/eV
      -------------------------------------------------------------
         1        2.0000           -0.6211412             -16.9021
       ...           ...                  ...                  ...
        13        2.0000           -0.4625216             -12.5859
        14        2.0000           -0.4421936             -12.0327
        15        2.0000           -0.4386652             -11.9367
        16        2.0000           -0.4289594             -11.6726
        17        2.0000           -0.4236161             -11.5272
        18        2.0000           -0.4199475             -11.4274
        19        2.0000           -0.4170698             -11.3490 (HOMO)
        20                          0.0613283               1.6688 (LUMO)
        21                          0.1138082               3.0969
        22                          0.1168128               3.1786
        23                          0.1307122               3.5569
        24                          0.1500898               4.0842
       ...                                ...                  ...
        38                          0.3200788               8.7098
      -------------------------------------------------------------
                  HL-Gap            0.4783982 Eh           13.0179 eV
             Fermi-level           -0.1778707 Eh           -4.8401 eV

 SCC (total)                   0 d,  0 h,  0 min,  0.005 sec
 SCC setup                      ...        0 min,  0.000 sec (  5.802%)
 Dispersion                     ...        0 min,  0.000 sec (  2.387%)
 classical contributions        ...        0 min,  0.000 sec (  0.379%)
 integral evaluation            ...        0 min,  0.000 sec (  8.024%)
 iterations                     ...        0 min,  0.002 sec ( 45.047%)
 molecular gradient             ...        0 min,  0.001 sec ( 27.536%)
 printout                       ...        0 min,  0.000 sec (  3.395%)

         :::::::::::::::::::::::::::::::::::::::::::::::::::::
         ::                     SUMMARY                     ::
         :::::::::::::::::::::::::::::::::::::::::::::::::::::
         :: total energy             -19.993836688329 Eh    ::
         :: gradient norm              0.000611515575 Eh/a0 ::
         :: HOMO-LUMO gap             13.017876284954 eV    ::
         ::.................................................::
         :: SCC energy               -20.298296242878 Eh    ::
         :: -> isotropic ES            0.003911740853 Eh    ::
         :: -> anisotropic ES          0.006803642725 Eh    ::
         :: -> anisotropic XC          0.012735905741 Eh    ::
         :: -> dispersion             -0.010396849288 Eh    ::
         :: repulsion energy           0.304479679536 Eh    ::
         :: add. restraining           0.000000000000 Eh    ::
         :: total charge              -0.000000000000 e     ::
         :::::::::::::::::::::::::::::::::::::::::::::::::::::

           ------------------------------------------------- 
          |                Numerical Hessian                |
           ------------------------------------------------- 
step length          :   0.00500
SCC accuracy         :   0.30000
Hessian scale factor :   1.00000
frozen atoms in %    :   0.00000    0
RMS gradient         :   0.00061
estimated CPU  time      0.06 min
estimated wall time      0.01 min

writing file <hessian>.

 projected vibrational frequencies (cm⁻¹)
eigval :       -0.00    -0.00    -0.00    -0.00    -0.00     0.00
eigval :       67.87    92.60   135.04   135.35   227.38   237.03
eigval :      301.38   370.78   465.00   769.06   785.96   842.46
eigval :      926.11   940.05   942.02  1003.99  1074.49  1079.91
eigval :     1108.54  1118.84  1150.13  1200.17  1229.88  1260.46
eigval :     1268.68  1283.72  1292.96  1319.56  1364.09  1379.42
eigval :     1415.98  1416.12  1495.82  1496.44  1500.13  1502.60
eigval :     1504.81  1504.86  1507.81  1508.07  2955.33  2960.39
eigval :     2968.78  2975.34  2975.53  2978.23  2981.62  2988.70
eigval :     3030.23  3030.73  3032.41  3032.99  3037.74  3038.52
           -------------------------------------------------
          |                Property Printout                |
           -------------------------------------------------

    * Orbital Energies and Occupations

         #    Occupation            Energy/Eh            Energy/eV
      -------------------------------------------------------------
         1        2.0000           -0.6211411             -16.9021
       ...           ...                  ...                  ...
         7        2.0000           -0.5197400             -14.1428
         8        2.0000           -0.5002977             -13.6138
         9        2.0000           -0.4980213             -13.5519
        10        2.0000           -0.4895514             -13.3214
        11        2.0000           -0.4710816             -12.8188
        12        2.0000           -0.4653487             -12.6628
        13        2.0000           -0.4625216             -12.5859
        14        2.0000           -0.4421936             -12.0327
        15        2.0000           -0.4386652             -11.9367
        16        2.0000           -0.4289594             -11.6726
        17        2.0000           -0.4236161             -11.5272
        18        2.0000           -0.4199475             -11.4274
        19        2.0000           -0.4170698             -11.3490 (HOMO)
        20                          0.0613283               1.6688 (LUMO)
        21                          0.1138082               3.0969
        22                          0.1168128               3.1786
        23                          0.1307122               3.5569
        24                          0.1500898               4.0842
        25                          0.1568768               4.2688
        26                          0.1571475               4.2762
        27                          0.1662738               4.5245
        28                          0.1826323               4.9697
        29                          0.1839910               5.0067
        30                          0.1952417               5.3128
       ...                                ...                  ...
        38                          0.3200788               8.7098
      -------------------------------------------------------------
                  HL-Gap            0.4783981 Eh           13.0179 eV
             Fermi-level           -0.1778707 Eh           -4.8401 eV

     #   Z          covCN         q      C6AA      α(0)
     1   6 C        3.752    -0.102    22.509     6.766
     2   6 C        3.801    -0.053    21.522     6.605
     3   6 C        3.803    -0.059    21.635     6.622
     4   6 C        3.803    -0.059    21.635     6.622
     5   6 C        3.801    -0.053    21.522     6.605
     6   6 C        3.752    -0.102    22.509     6.766
     7   1 H        0.925     0.033     2.543     2.494
     8   1 H        0.925     0.033     2.543     2.494
     9   1 H        0.925     0.032     2.551     2.498
    10   1 H        0.924     0.028     2.609     2.526
    11   1 H        0.924     0.028     2.609     2.526
    12   1 H        0.924     0.029     2.598     2.521
    13   1 H        0.924     0.029     2.598     2.521
    14   1 H        0.924     0.029     2.599     2.521
    15   1 H        0.924     0.029     2.598     2.521
    16   1 H        0.924     0.028     2.609     2.526
    17   1 H        0.924     0.028     2.609     2.526
    18   1 H        0.925     0.033     2.543     2.494
    19   1 H        0.925     0.032     2.551     2.498
    20   1 H        0.925     0.033     2.543     2.494

 Mol. C6AA /au·bohr⁶  :       2547.463796
 Mol. C8AA /au·bohr⁸  :      52347.220688
 Mol. α(0) /au        :         75.142944


Wiberg/Mayer (AO) data.
largest (>0.10) Wiberg bond orders for each atom

 ---------------------------------------------------------------------------
     #   Z sym  total        # sym  WBO       # sym  WBO       # sym  WBO
 ---------------------------------------------------------------------------
     1   6 C    3.997 --     2 C    1.019     8 H    0.988     7 H    0.988
                             9 H    0.988
     2   6 C    3.998 --     1 C    1.019     3 C    1.008    10 H    0.979
                            11 H    0.979
     3   6 C    3.997 --     2 C    1.008     4 C    1.007    12 H    0.978
                            13 H    0.978
     4   6 C    3.997 --     5 C    1.008     3 C    1.007    14 H    0.978
                            15 H    0.978
     5   6 C    3.998 --     6 C    1.019     4 C    1.008    16 H    0.979
                            17 H    0.979
     6   6 C    3.997 --     5 C    1.019    20 H    0.988    18 H    0.988
                            19 H    0.988
     7   1 H    0.999 --     1 C    0.988
     8   1 H    0.999 --     1 C    0.988
     9   1 H    0.999 --     1 C    0.988
    10   1 H    0.999 --     2 C    0.979
    11   1 H    0.999 --     2 C    0.979
    12   1 H    0.999 --     3 C    0.978
    13   1 H    0.999 --     3 C    0.978
    14   1 H    0.999 --     4 C    0.978
    15   1 H    0.999 --     4 C    0.978
    16   1 H    0.999 --     5 C    0.979
    17   1 H    0.999 --     5 C    0.979
    18   1 H    0.999 --     6 C    0.988
    19   1 H    0.999 --     6 C    0.988
    20   1 H    0.999 --     6 C    0.988
 ---------------------------------------------------------------------------

Topologies differ in total number of bonds
Writing topology from bond orders to xtbtopo.mol

molecular dipole:
                 x           y           z       tot (Debye)
 q only:        0.000      -0.000      -0.000
   full:        0.000      -0.000      -0.000       0.000
molecular quadrupole (traceless):
                xx          xy          yy          xz          yz          zz
 q only:        0.345       0.097      -0.026       0.000      -0.000      -0.319
  q+dip:       -1.619      -0.295       0.051      -0.001       0.001       1.568
   full:       -0.668      -0.116      -0.010      -0.000       0.000       0.678

           -------------------------------------------------
          |                Geometry Summary                 |
           -------------------------------------------------

      molecular mass/u    :       86.1755859
   center of mass at/Å    :        0.0000125      -0.0000229      -0.0000273
  moments of inertia/u·Å² :        0.3474900E+02   0.4378695E+03   0.4538192E+03
rotational constants/cm⁻¹ :        0.4851257E+00   0.3849922E-01   0.3714614E-01

 * 19 selected distances

     #   Z          #   Z                                           value/Å
     1   6 C        2   6 C                                       1.5239295
     2   6 C        3   6 C                                       1.5268947 (max)
     3   6 C        4   6 C                                       1.5266457
     4   6 C        5   6 C                                       1.5268874
     5   6 C        6   6 C                                       1.5239396
     1   6 C        7   1 H                                       1.0878771
     1   6 C        8   1 H                                       1.0878737
     1   6 C        9   1 H                                       1.0875824
     2   6 C       10   1 H                                       1.0923455
     2   6 C       11   1 H                                       1.0923471
     3   6 C       12   1 H                                       1.0926177
     3   6 C       13   1 H                                       1.0926273
     4   6 C       14   1 H                                       1.0926241
     4   6 C       15   1 H                                       1.0926291
     5   6 C       16   1 H                                       1.0923422
     5   6 C       17   1 H                                       1.0923440
     6   6 C       18   1 H                                       1.0878804
     6   6 C       19   1 H                                       1.0875808 (min)
     6   6 C       20   1 H                                       1.0878744

 * 2 distinct bonds (by element types)

   Z      Z             #   av. dist./Å        max./Å        min./Å
   1 H    6 C          14     1.0904676     1.0926291     1.0875808
   6 C    6 C           5     1.5256594     1.5268947     1.5239295

           -------------------------------------------------
          |               Frequency Printout                |
           -------------------------------------------------
 projected vibrational frequencies (cm⁻¹)
eigval :       -0.00    -0.00    -0.00    -0.00    -0.00     0.00
eigval :       67.87    92.60   135.04   135.35   227.38   237.03
eigval :      301.38   370.78   465.00   769.06   785.96   842.46
eigval :      926.11   940.05   942.02  1003.99  1074.49  1079.91
eigval :     1108.54  1118.84  1150.13  1200.17  1229.88  1260.46
eigval :     1268.68  1283.72  1292.96  1319.56  1364.09  1379.42
eigval :     1415.98  1416.12  1495.82  1496.44  1500.13  1502.60
eigval :     1504.81  1504.86  1507.81  1508.07  2955.33  2960.39
eigval :     2968.78  2975.34  2975.53  2978.23  2981.62  2988.70
eigval :     3030.23  3030.73  3032.41  3032.99  3037.74  3038.52
 reduced masses (amu)
   1:  9.78   2:  4.97   3:  9.71   4: 10.01   5: 10.02   6:  9.91   7:  7.78   8:  5.60
   9:  8.53  10:  7.30  11:  1.84  12:  2.37  13:  8.54  14:  9.56  15:  8.59  16:  1.63
  17:  1.99  18:  2.45  19:  2.51  20:  5.40  21:  6.67  22:  1.87  23: 10.10  24:  7.54
  25:  7.64  26:  8.02  27:  8.21  28:  6.49  29:  4.57  30:  3.58  31:  2.54  32:  1.95
  33:  2.14  34:  3.90  35:  4.71  36:  5.71  37:  3.15  38:  3.21  39:  1.92  40:  1.85
  41:  1.99  42:  1.80  43:  1.53  44:  1.53  45:  1.67  46:  1.62  47:  1.90  48:  1.95
  49:  2.01  50:  1.45  51:  1.47  52:  2.05  53:  1.48  54:  1.52  55:  1.96  56:  1.96
  57:  1.93  58:  1.94  59:  1.25  60:  1.26
 IR intensities (km·mol⁻¹)
   1:  0.01   2:  0.00   3:  0.00   4:  0.00   5:  0.00   6:  0.01   7:  0.01   8:  0.00
   9:  0.12  10:  0.02  11:  0.00  12:  0.01  13:  0.00  14:  0.00  15:  0.38  16: 12.72
  17:  0.00  18:  3.48  19:  0.00  20:  0.00  21:  6.84  22:  0.91  23:  0.00  24:  4.75
  25:  0.00  26:  2.76  27:  0.00  28:  0.00  29:  0.70  30:  1.10  31:  0.00  32:  0.00
  33:  0.02  34:  0.00  35:  1.52  36:  0.00  37:  0.00  38:  1.76  39:  0.00  40:  0.21
  41:  0.61  42:  0.00  43:  4.71  44:  0.15  45:  2.27  46:  0.00  47:  0.00  48:  0.64
  49:  0.00  50:  0.00  51:  0.17  52:178.65  53:  0.01  54:136.75  55:  0.06  56:122.41
  57:  0.02  58:121.71  59: 63.32  60:  0.00
 Raman intensities (amu)
   1:  0.00   2:  0.00   3:  0.00   4:  0.00   5:  0.00   6:  0.00   7:  0.00   8:  0.00
   9:  0.00  10:  0.00  11:  0.00  12:  0.00  13:  0.00  14:  0.00  15:  0.00  16:  0.00
  17:  0.00  18:  0.00  19:  0.00  20:  0.00  21:  0.00  22:  0.00  23:  0.00  24:  0.00
  25:  0.00  26:  0.00  27:  0.00  28:  0.00  29:  0.00  30:  0.00  31:  0.00  32:  0.00
  33:  0.00  34:  0.00  35:  0.00  36:  0.00  37:  0.00  38:  0.00  39:  0.00  40:  0.00
  41:  0.00  42:  0.00  43:  0.00  44:  0.00  45:  0.00  46:  0.00  47:  0.00  48:  0.00
  49:  0.00  50:  0.00  51:  0.00  52:  0.00  53:  0.00  54:  0.00  55:  0.00  56:  0.00
  57:  0.00  58:  0.00  59:  0.00  60:  0.00
 output can be read by thermo (or use thermo option).
 writing <g98.out> molden fake output.
 recommended (thermochemical) frequency scaling factor: 1.0
           -------------------------------------------------
          |             Thermodynamic Functions             |
           -------------------------------------------------

Molecule has the following symmetry elements: (i) (C2) (sigma) 
It seems to be the C2h point group
c2h symmetry found (for desy threshold:  0.10E+00) used in thermo

          ...................................................
          :                      SETUP                      :
          :.................................................:
          :  # frequencies                          54      :
          :  # imaginary freq.                       0      :
          :  linear?                             false      :
          :  only rotor calc.                    false      :
          :  symmetry                              c2h      :
          :  rotational number                       2      :
          :  scaling factor                  1.0000000      :
          :  rotor cutoff                   50.0000000 cm⁻¹ :
          :  imag. cutoff                  -20.0000000 cm⁻¹ :
          :.................................................:

    mode    ω/cm⁻¹     T·S(HO)/kcal·mol⁻¹    T·S(FR)/kcal·mol⁻¹   T·S(vib)
   ------------------------------------------------------------------------
       1     67.87    -1.25643 ( 77.25%)    -0.96578 ( 22.75%)    -1.19031
       2     92.60    -1.07464 ( 92.17%)    -0.87381 (  7.83%)    -1.05891
       3    135.04    -0.85659 ( 98.16%)    -0.76211 (  1.84%)    -0.85485
       4    135.35    -0.85525 ( 98.17%)    -0.76141 (  1.83%)    -0.85354
       5    227.38    -0.56635 ( 99.77%)    -0.60780 (  0.23%)    -0.56645
       6    237.03    -0.54414 ( 99.80%)    -0.59548 (  0.20%)    -0.54424
   ------------------------------------------------------------------------

   temp. (K)  partition function   enthalpy   heat capacity  entropy
                                   cal/mol     cal/K/mol   cal/K/mol   J/K/mol
 298.15  VIB   195.                 3524.507     22.809     22.018
         ROT  0.100E+06              888.752      2.981     25.867
         INT  0.196E+08             4413.259     25.790     47.885
         TR   0.774E+27             1481.254      4.968     39.257
         TOT                        5894.5134    30.7578    87.1419   364.6017

       T/K    H(0)-H(T)+PV         H(T)/Eh          T*S/Eh         G(T)/Eh
   ------------------------------------------------------------------------
    298.15    0.939351E-02    0.196686E+00    0.414039E-01    0.155282E+00
   ------------------------------------------------------------------------

         :::::::::::::::::::::::::::::::::::::::::::::::::::::
         ::                  THERMODYNAMIC                  ::
         :::::::::::::::::::::::::::::::::::::::::::::::::::::
         :: total free energy         -19.838554234151 Eh   ::
         ::.................................................::
         :: total energy              -19.993836688329 Eh   ::
         :: zero point energy           0.187292878502 Eh   ::
         :: G(RRHO) w/o ZPVE           -0.032010424324 Eh   ::
         :: G(RRHO) contrib.            0.155282454178 Eh   ::
         :::::::::::::::::::::::::::::::::::::::::::::::::::::
 
 normal mode %tage of torsion character
   1:  0.00   2:  0.00   3:  0.00   4:  0.00   5:  0.00   6:  0.00   7:  0.40   8:  0.70
   9:  0.30  10:  0.62  11:  0.90  12:  0.89  13:  0.12  14:  0.04  15:  0.05  16:  0.54
  17:  0.50  18:  0.57  19:  0.45  20:  0.09  21:  0.11  22:  0.38  23:  0.03  24:  0.07
  25:  0.03  26:  0.03  27:  0.06  28:  0.58  29:  0.40  30:  0.07  31:  0.22  32:  0.10
  33:  0.20  34:  0.07  35:  0.06  36:  0.06  37:  0.00  38:  0.00  39:  0.66  40:  0.62
  41:  0.66  42:  0.58  43:  0.93  44:  0.93  45:  0.84  46:  0.86  47:  0.40  48:  0.38
  49:  0.17  50:  0.01  51:  0.01  52:  0.01  53:  0.01  54:  0.01  55:  0.07  56:  0.07
  57:  0.04  58:  0.03  59:  0.00  60:  0.00
 recommended # of modes for mode following           4

optimized geometry written to: xtbopt.xyz


           -------------------------------------------------
          | TOTAL ENERGY              -19.993836688329 Eh   |
          | TOTAL ENTHALPY            -19.797150304774 Eh   |
          | TOTAL FREE ENERGY         -19.838554234151 Eh   |
          | GRADIENT NORM               0.000611517672 Eh/α |
          | HOMO-LUMO GAP              13.017876217261 eV   |
           -------------------------------------------------

------------------------------------------------------------------------
 * finished run on 2024/04/20 at 10:55:47.004     
------------------------------------------------------------------------
 total:
 * wall-time:     0 d,  0 h,  0 min,  2.236 sec
 *  cpu-time:     0 d,  0 h,  0 min,  3.887 sec
 * ratio c/w:     1.738 speedup
 SCF:
 * wall-time:     0 d,  0 h,  0 min,  0.505 sec
 *  cpu-time:     0 d,  0 h,  0 min,  0.649 sec
 * ratio c/w:     1.284 speedup
 ANC optimizer:
 * wall-time:     0 d,  0 h,  0 min,  0.203 sec
 *  cpu-time:     0 d,  0 h,  0 min,  0.581 sec
 * ratio c/w:     2.863 speedup
 analytical hessian:
 * wall-time:     0 d,  0 h,  0 min,  0.415 sec
 *  cpu-time:     0 d,  0 h,  0 min,  1.221 sec
 * ratio c/w:     2.940 speedup

