20
 energy: -19.992653276738 gnorm: 0.022972835644 xtb: 6.6.1 (8d0f1dd)
C            3.19830300000000        0.21792800000000       -0.00064500000000
C            1.88216000000000       -0.54374600000000        0.00031300000000
C            0.66337500000000        0.38043400000000       -0.00144600000000
C           -0.66334400000000       -0.37927200000000        0.00224100000000
C           -1.88258500000000        0.54397700000000        0.00222600000000
C           -3.19794700000000       -0.21915700000000       -0.00242900000000
H            3.28213500000000        0.86315400000000        0.87652200000000
H            3.28258900000000        0.85998600000000       -0.88014000000000
H            4.06160100000000       -0.45218100000000        0.00000000000000
H            1.83139100000000       -1.21297500000000       -0.86933300000000
H            1.83103600000000       -1.20943400000000        0.87266700000000
H            0.70582900000000        1.04426900000000       -0.87407100000000
H            0.70739500000000        1.04994900000000        0.86673500000000
H           -0.70491700000000       -1.04397400000000        0.87420900000000
H           -0.70759500000000       -1.04770700000000       -0.86674200000000
H           -1.83388300000000        1.20904000000000        0.87518800000000
H           -1.83075700000000        1.21381800000000       -0.86692500000000
H           -3.27979700000000       -0.87097400000000        0.87002300000000
H           -4.06200000000000        0.44998300000000        0.00517000000000
H           -3.28257700000000       -0.85490900000000       -0.88640100000000
20
 energy: -19.993699186613 gnorm: 0.010145849682 xtb: 6.6.1 (8d0f1dd)
C            3.18736153191235        0.22102082259208       -0.00082125251704
C            1.87389077053076       -0.54546938873067        0.00045979117140
C            0.66075593106163        0.38339504976558       -0.00143884849223
C           -0.66064941163439       -0.38238235314969        0.00205900433330
C           -1.87429716212628        0.54569850629698        0.00226097638049
C           -3.18702759230605       -0.22212246203407       -0.00240842783905
H            3.26591446871506        0.85862193050564        0.87962087513354
H            3.26609733668869        0.85572651701850       -0.88340994516690
H            4.03784463278800       -0.46023675022622        0.00024531641454
H            1.83035475461501       -1.19876504477050       -0.87799841978620
H            1.83011230930120       -1.19537129922743        0.88144276635146
H            0.70297291302559        1.03173971729325       -0.88327310686753
H            0.70451271438490        1.03723710571758        0.87624816548300
H           -0.70205704870877       -1.03172512382130        0.88318449427315
H           -0.70470031517854       -1.03522786605985       -0.87634945456017
H           -1.83283221764705        1.19493751566045        0.88383153180397
H           -1.82971776228903        1.19970487597102       -0.87562846719764
H           -3.26356992505831       -0.86611717221770        0.87357863927935
H           -4.03825692439989        0.45815719306454        0.00489799251899
H           -3.26629700367487       -0.85061277364822       -0.88933963071644
20
 energy: -19.993832065517 gnorm: 0.001948433812 xtb: 6.6.1 (8d0f1dd)
C            3.18334433535143        0.22240125277525       -0.00085843109602
C            1.86951692010413       -0.54730551446679        0.00048443420736
C            0.65972315120976        0.38432772218080       -0.00135149467899
C           -0.65960094966821       -0.38347605016631        0.00188955996617
C           -1.86988476722413        0.54750178263511        0.00221618425155
C           -3.18304371686306       -0.22337285399947       -0.00232884258472
H            3.25666393168895        0.85729211994649        0.87992223536191
H            3.25663984292378        0.85433728614445       -0.88377495572518
H            4.02849699537856       -0.46278182582658        0.00030048975175
H            1.82762492633734       -1.19342860471946       -0.88010454987014
H            1.82751346584188       -1.18999171689957        0.88358164919539
H            0.70168781079251        1.02624408606208       -0.88521860758956
H            0.70305593122560        1.03149234415510        0.87862913559976
H           -0.70076926090677       -1.02653962087579        0.88496892739719
H           -0.70334421324203       -1.02956156460993       -0.87886306951902
H           -1.82996828665811        1.18950277504593        0.88590093197973
H           -1.82694734961734        1.19435423149724       -0.87778337031352
H           -3.25446578901868       -0.86417699954547        0.87433343679843
H           -4.02888393637062        0.46091566619067        0.00451451215716
H           -3.25694704128499       -0.84952551552376       -0.88929617528926
20
 energy: -19.993836688324 gnorm: 0.000611460210 xtb: 6.6.1 (8d0f1dd)
C            3.18281744742988        0.22251318705586       -0.00088495714157
C            1.86838603567191       -0.54860851673670        0.00054946050213
C            0.65971411078757        0.38440596121368       -0.00125800613015
C           -0.65961177640145       -0.38371988499261        0.00168517332198
C           -1.86869465053718        0.54875153349526        0.00218394110167
C           -3.18255132739321       -0.22335773772290       -0.00222974958754
H            3.25371141572029        0.85738675293464        0.87967507945633
H            3.25362666030252        0.85436571695868       -0.88361793411124
H            4.02817659320153       -0.46173966124514        0.00025885603088
H            1.82615820911134       -1.19402473542661       -0.87971937971679
H            1.82612447424656       -1.19061676200118        0.88330725167677
H            0.70170270086748        1.02619101428366       -0.88452591967485
H            0.70287295048845        1.03108069067140        0.87839147602677
H           -0.70080483919984       -1.02671916124234        0.88411495363635
H           -0.70325992949710       -1.02923186643471       -0.87879609707003
H           -1.82830098163300        1.19004423945187        0.88554302475387
H           -1.82544197442827        1.19491109331798       -0.87748775927333
H           -3.25178157270517       -0.86361312379237        0.87456197562796
H           -4.02850366074799        0.46013084839190        0.00407695118418
H           -3.25392788528431       -0.84994058818036       -0.88866634061340
