 Entering Gaussian System
 *********************************************
 Gaussian 98:
 frequency output generated by the xtb code
 *********************************************
                         Standard orientation:
 --------------------------------------------------------------------
  Center     Atomic     Atomic              Coordinates (Angstroms)
  Number     Number      Type              X           Y           Z
 --------------------------------------------------------------------
    1          6             0        4.909445    1.329372   -0.075911
    2          6             0        4.148880    0.051837    0.257301
    3          6             0        2.695895    0.120497   -0.206410
    4          6             0        1.926503   -1.154445    0.131920
    5          6             0        0.498781   -1.161934   -0.415092
    6          6             0       -0.420480   -0.156983    0.275518
    7          6             0       -1.846623   -0.227584   -0.265313
    8          6             0       -2.769057    0.766552    0.436834
    9          6             0       -4.170980    0.827084   -0.169969
   10          6             0       -4.967458   -0.457051    0.028907
   11          1             0        5.940888    1.262645    0.262546
   12          1             0        4.911261    1.502494   -1.150077
   13          1             0        4.444764    2.186620    0.406822
   14          1             0        4.641258   -0.798752   -0.220136
   15          1             0        4.174792   -0.115398    1.336709
   16          1             0        2.215658    0.978758    0.266678
   17          1             0        2.670933    0.278946   -1.287421
   18          1             0        2.465812   -2.008409   -0.286424
   19          1             0        1.898305   -1.283500    1.216623
   20          1             0        0.079532   -2.163423   -0.287490
   21          1             0        0.523669   -0.950820   -1.487001
   22          1             0       -0.037040    0.854459    0.130514
   23          1             0       -0.430944   -0.357851    1.349686
   24          1             0       -1.835065   -0.012944   -1.336895
   25          1             0       -2.226924   -1.241997   -0.133309
   26          1             0       -2.320463    1.761760    0.377496
   27          1             0       -2.845562    0.503285    1.494589
   28          1             0       -4.714914    1.654238    0.293023
   29          1             0       -4.091211    1.042345   -1.238153
   30          1             0       -4.509697   -1.286596   -0.503422
   31          1             0       -5.020047   -0.711808    1.085362
   32          1             0       -5.981701   -0.334139   -0.344622
 --------------------------------------------------------------------
     1 basis functions        1 primitive gaussians
     1 alpha electrons        1 beta electrons
 
 Harmonic frequencies (cm**-1), IR intensities (km*mol⁻¹),
 Raman scattering activities (A**4/amu), Raman depolarization ratios,
 reduced masses (AMU), force constants (mDyne/A) and normal coordinates:
                      1                      2                      3
                        a                      a                      a 
 Frequencies --    22.6151                42.4984                54.7380
 Red. masses --     8.4893                 8.4268                 6.2113
 Frc consts  --     0.0000                 0.0000                 0.0000
 IR Inten    --     0.0025                 0.0067                 0.0043
 Raman Activ --     0.0000                 0.0000                 0.0000
 Depolar     --     0.0000                 0.0000                 0.0000
 Atom AN      X      Y      Z        X      Y      Z        X      Y      Z
   1   6     0.03  -0.05   0.28     0.30  -0.31  -0.12     0.08  -0.09  -0.04
   2   6    -0.00  -0.07   0.10     0.04  -0.07   0.16     0.14  -0.20  -0.36
   3   6     0.02   0.01   0.04     0.11   0.01  -0.06    -0.06   0.14   0.33
   4   6    -0.02  -0.01  -0.11    -0.07   0.16   0.07    -0.02   0.05   0.10
   5   6     0.00   0.06  -0.19    -0.03   0.25  -0.03    -0.02   0.09   0.12
   6   6     0.02   0.12  -0.26    -0.05   0.25  -0.05    -0.01   0.15   0.05
   7   6    -0.01   0.01  -0.15    -0.03   0.22  -0.08    -0.01   0.05   0.06
   8   6     0.03   0.14  -0.27    -0.15  -0.00   0.08    -0.08   0.06  -0.04
   9   6    -0.07  -0.13  -0.05    -0.18  -0.14   0.13    -0.06  -0.08  -0.10
  10   6     0.01  -0.08   0.55     0.04  -0.31  -0.08     0.04  -0.15  -0.10
  11   1     0.01  -0.03   0.09     0.07  -0.11   0.02     0.07  -0.11  -0.17
  12   1     0.03   0.02   0.09     0.15  -0.19  -0.05    -0.13   0.15   0.02
  13   1     0.01  -0.03   0.11     0.11  -0.02  -0.14     0.12  -0.09   0.20
  14   1     0.00  -0.01   0.01    -0.01  -0.09   0.14    -0.04   0.00  -0.30
  15   1    -0.02  -0.06   0.02    -0.04   0.07   0.06     0.18  -0.23  -0.13
  16   1     0.00  -0.01   0.03     0.04   0.05  -0.09     0.06  -0.01   0.27
  17   1     0.02   0.03   0.01     0.08  -0.06  -0.03    -0.15   0.18   0.12
  18   1    -0.01   0.00  -0.04    -0.04   0.01   0.06    -0.00   0.04  -0.02
  19   1    -0.02  -0.03  -0.04    -0.05   0.09   0.02     0.00  -0.05   0.02
  20   1    -0.01   0.02  -0.05    -0.03   0.08  -0.02    -0.02   0.03   0.05
  21   1     0.02   0.01  -0.06     0.01   0.08  -0.01    -0.00   0.01   0.03
  22   1    -0.00   0.03  -0.12    -0.01   0.07  -0.01    -0.01   0.04  -0.02
  23   1     0.03   0.08  -0.07    -0.02   0.07  -0.01     0.00   0.08   0.02
  24   1    -0.03  -0.06  -0.05    -0.01   0.11  -0.01    -0.01  -0.01   0.01
  25   1     0.00   0.01   0.02     0.02   0.05  -0.07     0.01   0.01   0.04
  26   1    -0.01   0.04  -0.18    -0.09   0.02   0.06    -0.04   0.02  -0.03
  27   1     0.06   0.12  -0.05    -0.02  -0.05   0.01    -0.03   0.04  -0.01
  28   1    -0.01   0.01  -0.07    -0.09  -0.09   0.08    -0.04  -0.03  -0.04
  29   1    -0.08  -0.15  -0.04    -0.07   0.02   0.05    -0.01  -0.03  -0.03
  30   1    -0.01  -0.08   0.23     0.04  -0.04  -0.08     0.03  -0.03  -0.02
  31   1     0.05   0.09   0.19     0.04  -0.15  -0.04     0.01  -0.04  -0.03
  32   1    -0.02  -0.08   0.19     0.00  -0.12   0.00     0.01  -0.07  -0.03
                      4                      5                      6
                        a                      a                      a 
 Frequencies --    81.6471                95.7338               107.0197
 Red. masses --     6.9316                 7.6203                 8.1605
 Frc consts  --     0.0000                 0.0000                 0.0000
 IR Inten    --     0.0072                 0.0041                 0.0195
 Raman Activ --     0.0000                 0.0000                 0.0000
 Depolar     --     0.0000                 0.0000                 0.0000
 Atom AN      X      Y      Z        X      Y      Z        X      Y      Z
   1   6    -0.23   0.10   0.14     0.19  -0.07   0.12     0.02  -0.07  -0.28
   2   6    -0.08  -0.04  -0.05     0.04  -0.01   0.01    -0.06   0.11   0.22
   3   6    -0.06  -0.16  -0.13     0.09   0.08  -0.14    -0.13   0.16   0.44
   4   6    -0.06  -0.11   0.04     0.03   0.11  -0.16    -0.01  -0.02   0.05
   5   6    -0.07  -0.13   0.09     0.00   0.12  -0.07     0.07  -0.08  -0.16
   6   6     0.10   0.25  -0.25     0.03   0.14  -0.07     0.04   0.01  -0.34
   7   6    -0.01   0.03   0.08    -0.14  -0.37   0.43    -0.04  -0.18  -0.10
   8   6     0.09   0.15   0.03    -0.09  -0.08   0.11     0.09  -0.12   0.01
   9   6     0.02   0.07   0.18     0.00  -0.00  -0.10     0.04   0.09   0.17
  10   6     0.30  -0.15  -0.16    -0.16   0.10  -0.12    -0.03   0.10  -0.00
  11   1    -0.07   0.05   0.05     0.04  -0.05   0.07     0.02  -0.02  -0.11
  12   1    -0.06   0.07   0.05     0.10  -0.02   0.03    -0.03  -0.12  -0.10
  13   1    -0.10  -0.01   0.07     0.06  -0.01   0.02     0.05   0.04  -0.15
  14   1     0.02   0.02  -0.03     0.01  -0.01   0.02    -0.07  -0.02   0.10
  15   1    -0.04  -0.04  -0.02    -0.03  -0.01   0.00     0.03   0.11   0.07
  16   1    -0.03  -0.03  -0.08     0.02   0.03  -0.06    -0.04  -0.01   0.23
  17   1    -0.01  -0.09  -0.04     0.05   0.02  -0.04    -0.08   0.15   0.14
  18   1    -0.02  -0.05   0.04    -0.00   0.03  -0.06     0.04   0.04  -0.02
  19   1    -0.01   0.01   0.02     0.02   0.02  -0.05    -0.04  -0.08   0.00
  20   1    -0.06  -0.01   0.14     0.00   0.04   0.00     0.02  -0.02  -0.03
  21   1    -0.03  -0.16   0.00    -0.02   0.02  -0.03     0.06  -0.05  -0.05
  22   1     0.03   0.05  -0.24    -0.07   0.05  -0.16    -0.02  -0.00  -0.18
  23   1     0.09   0.23  -0.04     0.13   0.14  -0.00     0.05   0.08  -0.08
  24   1    -0.08  -0.08   0.01    -0.14  -0.28   0.09    -0.07  -0.09  -0.04
  25   1     0.02   0.01   0.13     0.01  -0.10   0.33     0.01  -0.05   0.03
  26   1     0.02   0.04  -0.05     0.02  -0.05  -0.02     0.06  -0.05   0.00
  27   1     0.06   0.09   0.02    -0.07   0.05   0.05     0.05  -0.05   0.00
  28   1    -0.03  -0.05   0.14     0.01   0.03  -0.07     0.04   0.01   0.11
  29   1    -0.04   0.12   0.07     0.06  -0.03  -0.03    -0.02   0.08   0.06
  30   1     0.08   0.05  -0.20    -0.04  -0.00   0.02    -0.05   0.06  -0.08
  31   1     0.19  -0.19  -0.08    -0.12   0.06  -0.03     0.04  -0.04  -0.02
  32   1     0.05  -0.05   0.06    -0.02   0.05  -0.10    -0.02   0.08   0.05
                      7                      8                      9
                        a                      a                      a 
 Frequencies --   118.6380               152.0154               201.3883
 Red. masses --     7.6455                 6.1644                 7.7565
 Frc consts  --     0.0000                 0.0000                 0.0000
 IR Inten    --     0.0444                 0.0524                 0.2068
 Raman Activ --     0.0000                 0.0000                 0.0000
 Depolar     --     0.0000                 0.0000                 0.0000
 Atom AN      X      Y      Z        X      Y      Z        X      Y      Z
   1   6     0.04   0.07   0.12     0.21  -0.02   0.11     0.23  -0.17   0.13
   2   6     0.13  -0.04  -0.14     0.05   0.02  -0.10    -0.29   0.10  -0.07
   3   6     0.11  -0.05  -0.10     0.05   0.13  -0.11    -0.26   0.33  -0.12
   4   6     0.03   0.09   0.25    -0.00   0.22   0.14     0.01   0.15  -0.15
   5   6     0.08  -0.09   0.11     0.04  -0.05   0.02    -0.10  -0.29   0.20
   6   6     0.02   0.13  -0.29    -0.19  -0.29   0.05     0.01  -0.06  -0.01
   7   6     0.01   0.01  -0.26    -0.15  -0.23  -0.07     0.05   0.06  -0.08
   8   6    -0.05  -0.30   0.10     0.04   0.06  -0.21     0.07  -0.03   0.05
   9   6    -0.05  -0.00   0.12    -0.10   0.12   0.13     0.10  -0.01   0.00
  10   6    -0.32   0.16   0.06     0.02   0.04   0.01     0.12  -0.02   0.01
  11   1     0.02   0.01   0.00     0.06  -0.07   0.01     0.03  -0.16   0.12
  12   1    -0.02   0.11   0.05     0.05   0.06   0.04     0.18  -0.05   0.04
  13   1     0.02  -0.02   0.12     0.11  -0.01   0.09     0.12   0.00   0.00
  14   1     0.05   0.02  -0.09    -0.00   0.01  -0.05    -0.14  -0.01  -0.02
  15   1     0.04  -0.07  -0.05     0.00  -0.03  -0.04    -0.13   0.01  -0.02
  16   1     0.05   0.03  -0.08     0.03   0.07  -0.07    -0.08   0.07   0.01
  17   1     0.02  -0.09  -0.04     0.02  -0.02  -0.04    -0.09   0.13  -0.03
  18   1     0.02  -0.02   0.18     0.02   0.04   0.13     0.04   0.09  -0.09
  19   1    -0.03   0.14   0.09    -0.03   0.15   0.05     0.08   0.02  -0.04
  20   1     0.02  -0.01   0.12     0.07  -0.04  -0.02     0.02  -0.08   0.23
  21   1     0.05  -0.13   0.01     0.02   0.01   0.01    -0.12  -0.23   0.03
  22   1     0.01   0.02  -0.17    -0.07  -0.07   0.08     0.04  -0.04  -0.05
  23   1    -0.00   0.13  -0.06    -0.09  -0.14   0.00    -0.02   0.04   0.01
  24   1    -0.02   0.08  -0.06    -0.02  -0.11  -0.03     0.03   0.07  -0.01
  25   1     0.05  -0.02  -0.15    -0.09  -0.04   0.02     0.01   0.01  -0.07
  26   1    -0.01  -0.08   0.15     0.04  -0.00  -0.16     0.02  -0.01   0.05
  27   1    -0.02  -0.21  -0.00     0.07   0.10  -0.04     0.02  -0.05   0.00
  28   1     0.03   0.02   0.05     0.00  -0.00   0.14     0.02  -0.00  -0.01
  29   1    -0.01   0.01   0.04    -0.11   0.12   0.05     0.04  -0.01  -0.00
  30   1    -0.10   0.01   0.07    -0.13   0.10  -0.25     0.10  -0.03   0.10
  31   1    -0.18   0.08   0.02     0.25  -0.17  -0.03    -0.06   0.06   0.02
  32   1    -0.06   0.09  -0.06    -0.08   0.09   0.26     0.07  -0.05  -0.10
                     10                     11                     12
                        a                      a                      a 
 Frequencies --   222.3330               237.4738               260.6634
 Red. masses --     4.4633                 3.3983                 6.0563
 Frc consts  --     0.0000                 0.0000                 0.0000
 IR Inten    --     0.0307                 0.0229                 0.0156
 Raman Activ --     0.0000                 0.0000                 0.0000
 Depolar     --     0.0000                 0.0000                 0.0000
 Atom AN      X      Y      Z        X      Y      Z        X      Y      Z
   1   6     0.06   0.06   0.01    -0.05   0.01   0.03    -0.12  -0.11   0.02
   2   6     0.13  -0.01  -0.07     0.05  -0.11  -0.22    -0.19  -0.07  -0.08
   3   6     0.07  -0.01   0.08    -0.04   0.03   0.09    -0.17   0.06  -0.04
   4   6     0.16  -0.14  -0.19    -0.10   0.10   0.20    -0.15   0.12   0.13
   5   6    -0.01  -0.07   0.21     0.02   0.06  -0.11    -0.01   0.15  -0.10
   6   6     0.06   0.11   0.08    -0.08  -0.08  -0.06     0.08   0.11   0.01
   7   6     0.06   0.08  -0.01    -0.08  -0.08  -0.02     0.12  -0.01   0.05
   8   6    -0.11  -0.02  -0.07     0.06   0.03   0.01     0.06  -0.19   0.16
   9   6    -0.14  -0.04  -0.04     0.04   0.06   0.07     0.27  -0.11  -0.25
  10   6    -0.26   0.03   0.00     0.15  -0.02  -0.01     0.09   0.06   0.08
  11   1    -0.07   0.15   0.28    -0.13   0.18   0.40    -0.05  -0.03   0.06
  12   1     0.28  -0.12  -0.02     0.36  -0.16  -0.02     0.02  -0.04   0.00
  13   1    -0.18   0.04  -0.23    -0.29   0.02  -0.29    -0.06  -0.03  -0.03
  14   1     0.04   0.02  -0.05     0.00   0.01  -0.15    -0.07  -0.02  -0.04
  15   1     0.06  -0.03  -0.02     0.06  -0.12  -0.08    -0.06  -0.05  -0.03
  16   1     0.02  -0.05   0.11     0.04   0.01   0.07    -0.03   0.04  -0.03
  17   1    -0.02   0.09   0.04    -0.07   0.03   0.03    -0.06  -0.01  -0.02
  18   1     0.01   0.00  -0.19    -0.01   0.00   0.14    -0.02   0.01   0.11
  19   1     0.14  -0.16  -0.07    -0.10   0.09   0.06    -0.10   0.10   0.04
  20   1    -0.01  -0.01   0.15     0.01   0.01  -0.10    -0.03   0.05  -0.08
  21   1    -0.07  -0.09   0.04     0.06   0.07  -0.02     0.04   0.09  -0.02
  22   1     0.03   0.02  -0.02    -0.03  -0.01   0.02     0.01   0.04   0.01
  23   1     0.00   0.08   0.03    -0.02  -0.06  -0.02     0.04   0.02   0.00
  24   1     0.04   0.04  -0.00    -0.04  -0.04  -0.01     0.03   0.04   0.02
  25   1     0.02   0.02  -0.03    -0.03  -0.02   0.02     0.06  -0.02  -0.02
  26   1    -0.06   0.01  -0.01     0.03  -0.00  -0.02     0.03  -0.06   0.16
  27   1    -0.03  -0.01  -0.02     0.03   0.02   0.01    -0.06  -0.14   0.02
  28   1    -0.02  -0.00  -0.00     0.00  -0.00   0.04     0.08   0.04  -0.20
  29   1    -0.06  -0.01  -0.01     0.00   0.04   0.03     0.17  -0.14  -0.09
  30   1    -0.24   0.04  -0.20     0.17  -0.02   0.14    -0.19   0.02  -0.17
  31   1     0.13  -0.12  -0.02    -0.12   0.08   0.01     0.30  -0.07   0.02
  32   1    -0.15   0.12   0.23     0.10  -0.09  -0.18    -0.07   0.13   0.32
                     13                     14                     15
                        a                      a                      a 
 Frequencies --   332.8462               353.5169               406.2954
 Red. masses --     8.4443                 8.6943                 8.4488
 Frc consts  --     0.0000                 0.0000                 0.0000
 IR Inten    --     0.0846                 0.0464                 0.1023
 Raman Activ --     0.0000                 0.0000                 0.0000
 Depolar     --     0.0000                 0.0000                 0.0000
 Atom AN      X      Y      Z        X      Y      Z        X      Y      Z
   1   6    -0.16  -0.14   0.02    -0.10  -0.02  -0.02    -0.39  -0.18  -0.04
   2   6    -0.23  -0.08  -0.04     0.07  -0.09   0.07     0.09  -0.33   0.17
   3   6    -0.15   0.06  -0.08     0.10  -0.02  -0.01     0.22   0.26  -0.03
   4   6     0.03   0.04   0.03    -0.01   0.04  -0.15     0.10   0.39  -0.14
   5   6     0.10   0.21   0.06    -0.15   0.26   0.26     0.06  -0.11   0.01
   6   6     0.20   0.15   0.19    -0.25   0.19   0.13     0.02  -0.12  -0.05
   7   6     0.31  -0.10  -0.03    -0.07  -0.27  -0.23    -0.02   0.06   0.04
   8   6     0.22  -0.06  -0.27     0.04  -0.31  -0.13    -0.00   0.08   0.06
   9   6    -0.01  -0.11   0.22     0.07   0.15  -0.01     0.00  -0.04  -0.00
  10   6    -0.27  -0.01  -0.07     0.27   0.08   0.08    -0.04  -0.02  -0.02
  11   1    -0.05  -0.05   0.01    -0.02   0.05  -0.03    -0.08   0.13  -0.08
  12   1    -0.04  -0.04   0.01    -0.07  -0.02  -0.01    -0.21  -0.10  -0.02
  13   1    -0.04  -0.04   0.01    -0.05  -0.02  -0.00    -0.21  -0.10  -0.03
  14   1    -0.08  -0.03  -0.01     0.03  -0.02   0.03     0.01  -0.09   0.04
  15   1    -0.09  -0.03  -0.01     0.01  -0.01   0.02     0.01  -0.10   0.05
  16   1    -0.04   0.02  -0.03     0.03  -0.01   0.00     0.13   0.11   0.01
  17   1    -0.05  -0.00  -0.02     0.05   0.02  -0.00     0.13   0.11  -0.00
  18   1     0.01   0.02   0.00    -0.08   0.02  -0.16     0.07   0.12  -0.01
  19   1     0.02   0.02   0.01     0.09  -0.08  -0.05     0.04   0.13  -0.03
  20   1    -0.01   0.07  -0.04    -0.04   0.08   0.11     0.11  -0.06   0.12
  21   1     0.04   0.12   0.03    -0.10   0.05   0.07    -0.05  -0.13  -0.02
  22   1     0.03   0.06   0.08    -0.13   0.08   0.02     0.03  -0.04  -0.01
  23   1     0.04   0.02   0.05    -0.13   0.09   0.04     0.01  -0.03  -0.01
  24   1     0.14  -0.09  -0.02     0.01  -0.08  -0.06    -0.01   0.03   0.01
  25   1     0.12  -0.03   0.03     0.03  -0.10  -0.07    -0.03   0.03  -0.00
  26   1     0.03  -0.01  -0.21     0.09  -0.12   0.05    -0.02   0.03  -0.00
  27   1     0.16   0.08  -0.05    -0.01  -0.17  -0.06     0.00   0.04   0.02
  28   1     0.06  -0.06   0.19     0.06   0.03   0.06    -0.02  -0.00  -0.03
  29   1    -0.10   0.07   0.08    -0.02   0.08   0.00     0.02  -0.03  -0.00
  30   1    -0.08  -0.01  -0.01     0.14   0.03   0.06    -0.03  -0.01  -0.01
  31   1    -0.19  -0.03  -0.03     0.09   0.06   0.03    -0.02  -0.01  -0.01
  32   1    -0.03   0.08  -0.11     0.07  -0.07   0.01    -0.01   0.01  -0.00
                     16                     17                     18
                        a                      a                      a 
 Frequencies --   451.2134               518.2774               766.4516
 Red. masses --     8.5677                 8.4715                 1.9864
 Frc consts  --     0.0000                 0.0000                 0.0000
 IR Inten    --     0.4281                 0.8098                13.5807
 Raman Activ --     0.0000                 0.0000                 0.0000
 Depolar     --     0.0000                 0.0000                 0.0000
 Atom AN      X      Y      Z        X      Y      Z        X      Y      Z
   1   6    -0.10  -0.11   0.02    -0.08  -0.09   0.02    -0.01  -0.01  -0.00
   2   6    -0.17  -0.03  -0.04    -0.16  -0.00  -0.05    -0.02  -0.01  -0.08
   3   6    -0.09   0.05  -0.06    -0.06  -0.00  -0.07     0.03  -0.10  -0.08
   4   6     0.28  -0.06   0.08     0.37  -0.13   0.09     0.08  -0.05  -0.07
   5   6     0.33  -0.00  -0.01     0.31   0.19   0.20     0.08   0.09  -0.05
   6   6     0.19  -0.02   0.00    -0.25  -0.00  -0.14     0.00   0.12  -0.07
   7   6     0.06  -0.02   0.08    -0.30   0.02  -0.12    -0.01   0.07  -0.08
   8   6    -0.33  -0.10  -0.07     0.07   0.17   0.17     0.02   0.05  -0.01
   9   6    -0.35   0.29  -0.13     0.15  -0.12   0.05     0.03  -0.02  -0.00
  10   6     0.14   0.06   0.07    -0.03  -0.04  -0.03    -0.01  -0.02   0.01
  11   1    -0.03  -0.05   0.01    -0.03  -0.05   0.01    -0.01  -0.02   0.03
  12   1    -0.02  -0.03   0.01    -0.01  -0.02   0.01     0.02   0.08   0.01
  13   1    -0.02  -0.03   0.01    -0.01  -0.02   0.01    -0.02  -0.04   0.05
  14   1    -0.07  -0.02  -0.01    -0.06  -0.01  -0.01     0.06  -0.07   0.18
  15   1    -0.07  -0.02  -0.01    -0.07  -0.01  -0.01    -0.14   0.17   0.01
  16   1    -0.05  -0.00  -0.02    -0.06  -0.03  -0.03     0.03  -0.16   0.25
  17   1    -0.04  -0.00  -0.02    -0.04  -0.03  -0.02    -0.15   0.24   0.02
  18   1     0.11   0.00   0.01     0.06   0.00  -0.11    -0.00  -0.13   0.18
  19   1     0.10  -0.01   0.02     0.23  -0.12   0.02    -0.07   0.19   0.01
  20   1     0.08  -0.00  -0.07     0.08   0.04  -0.05    -0.02   0.07   0.24
  21   1     0.15   0.05   0.01     0.18   0.12   0.07    -0.05  -0.22  -0.06
  22   1     0.04  -0.00  -0.00    -0.13   0.03  -0.02     0.01   0.08   0.34
  23   1     0.08  -0.01   0.00    -0.13   0.02  -0.04    -0.15  -0.29  -0.08
  24   1     0.03  -0.02   0.02    -0.14   0.03  -0.03    -0.14  -0.24  -0.07
  25   1     0.06  -0.02   0.02    -0.14   0.03  -0.03     0.04   0.04   0.27
  26   1    -0.06  -0.04   0.12     0.01   0.05  -0.02    -0.02   0.03   0.14
  27   1    -0.20  -0.12  -0.05     0.07   0.08   0.06    -0.02  -0.13  -0.04
  28   1    -0.08   0.05   0.05    -0.01  -0.00  -0.10    -0.00  -0.02   0.02
  29   1    -0.16   0.14  -0.03     0.13  -0.11   0.00    -0.01   0.01   0.00
  30   1     0.16   0.06   0.05    -0.06  -0.03  -0.03    -0.03  -0.02   0.01
  31   1     0.13   0.06   0.04    -0.05  -0.03  -0.02    -0.01   0.00   0.00
  32   1     0.00  -0.17   0.06     0.01   0.07  -0.02     0.00   0.03   0.00
                     19                     20                     21
                        a                      a                      a 
 Frequencies --   773.3102               789.8058               816.5480
 Red. masses --     1.9806                 2.7063                 2.9182
 Frc consts  --     0.0000                 0.0000                 0.0000
 IR Inten    --     3.9998                 5.3202                 3.7148
 Raman Activ --     0.0000                 0.0000                 0.0000
 Depolar     --     0.0000                 0.0000                 0.0000
 Atom AN      X      Y      Z        X      Y      Z        X      Y      Z
   1   6     0.00   0.01   0.01    -0.02   0.00   0.01     0.03  -0.00  -0.04
   2   6    -0.02   0.04   0.09    -0.06   0.06   0.07     0.07  -0.07  -0.10
   3   6    -0.04   0.05   0.12    -0.02  -0.05   0.08    -0.02   0.06   0.01
   4   6    -0.05   0.04   0.06     0.03  -0.01  -0.04    -0.13   0.07   0.11
   5   6    -0.01   0.00  -0.00     0.09   0.11  -0.09    -0.08  -0.07   0.06
   6   6     0.01   0.01  -0.09     0.07   0.11  -0.05     0.06  -0.04  -0.03
   7   6     0.04   0.12  -0.06     0.01  -0.11  -0.02     0.11   0.01  -0.13
   8   6     0.06   0.09  -0.06    -0.08  -0.11   0.10     0.03   0.03   0.00
   9   6     0.06  -0.04  -0.05    -0.13   0.09   0.12    -0.14   0.11   0.15
  10   6    -0.01  -0.05   0.00    -0.01   0.07   0.01    -0.07   0.00   0.06
  11   1     0.01  -0.01  -0.03     0.00  -0.05  -0.02    -0.01   0.06   0.05
  12   1    -0.02  -0.11  -0.02    -0.01  -0.10  -0.01     0.04   0.16   0.02
  13   1     0.05   0.07  -0.07     0.07   0.08  -0.07    -0.10  -0.12   0.10
  14   1    -0.08   0.11  -0.24    -0.05   0.10  -0.18     0.02  -0.14   0.19
  15   1     0.17  -0.22  -0.02     0.10  -0.17  -0.01    -0.06   0.21   0.01
  16   1    -0.06   0.15  -0.28    -0.09   0.00  -0.10     0.11   0.11  -0.05
  17   1     0.16  -0.28  -0.02     0.08  -0.11   0.00    -0.06  -0.08  -0.01
  18   1     0.00   0.11  -0.18     0.01  -0.02   0.03    -0.04   0.12  -0.19
  19   1     0.05  -0.20  -0.01    -0.07   0.00  -0.01     0.09  -0.18   0.01
  20   1    -0.01   0.01   0.06     0.00   0.07   0.27    -0.02  -0.04  -0.13
  21   1     0.02  -0.07  -0.01    -0.06  -0.25  -0.08     0.07   0.11   0.04
  22   1     0.07   0.01   0.18    -0.05   0.09   0.23     0.12  -0.05   0.01
  23   1    -0.10  -0.18  -0.06    -0.01  -0.22  -0.06    -0.06  -0.01  -0.01
  24   1    -0.11  -0.27  -0.07    -0.03   0.10   0.02    -0.02  -0.19  -0.07
  25   1     0.01   0.07   0.31     0.11  -0.09  -0.12     0.07   0.01   0.17
  26   1    -0.03   0.06   0.24     0.01  -0.06  -0.25    -0.00   0.02   0.08
  27   1    -0.06  -0.21  -0.08     0.11   0.20   0.09     0.08  -0.10  -0.02
  28   1     0.00  -0.08   0.10    -0.01   0.18  -0.23    -0.02   0.21  -0.27
  29   1    -0.07   0.09   0.00     0.13  -0.23  -0.01     0.09  -0.30  -0.02
  30   1    -0.08  -0.07   0.04     0.16   0.17  -0.09     0.17   0.19  -0.13
  31   1    -0.01   0.05   0.02     0.00  -0.14  -0.04    -0.06  -0.24  -0.05
  32   1    -0.00   0.05   0.02     0.00  -0.10  -0.04     0.00  -0.10  -0.07
                     22                     23                     24
                        a                      a                      a 
 Frequencies --   830.2094               894.8165               923.2417
 Red. masses --     2.8406                 4.6489                 6.6541
 Frc consts  --     0.0000                 0.0000                 0.0000
 IR Inten    --     1.4745                 1.1382                 1.8038
 Raman Activ --     0.0000                 0.0000                 0.0000
 Depolar     --     0.0000                 0.0000                 0.0000
 Atom AN      X      Y      Z        X      Y      Z        X      Y      Z
   1   6    -0.02   0.02   0.06     0.07   0.03   0.06     0.02  -0.06  -0.07
   2   6    -0.03   0.06   0.15     0.08  -0.04   0.07     0.01   0.01  -0.01
   3   6     0.04   0.01  -0.11    -0.03   0.16  -0.17    -0.02   0.12   0.11
   4   6     0.10  -0.10  -0.14    -0.01  -0.10   0.09     0.18  -0.12  -0.05
   5   6    -0.04  -0.09   0.06    -0.15  -0.21   0.09    -0.01  -0.13  -0.13
   6   6    -0.04  -0.01   0.13     0.03   0.13  -0.09    -0.08   0.14   0.14
   7   6     0.02   0.02  -0.12     0.01   0.12  -0.04    -0.13   0.12   0.04
   8   6     0.06   0.10  -0.05    -0.17  -0.22   0.08    -0.27  -0.12  -0.22
   9   6    -0.05   0.06   0.10     0.02  -0.10   0.01     0.15  -0.20   0.14
  10   6    -0.04  -0.03   0.05     0.07   0.13  -0.07     0.24   0.18   0.08
  11   1     0.03  -0.02  -0.09     0.06   0.13  -0.09    -0.02   0.05   0.06
  12   1    -0.08  -0.22  -0.02    -0.10  -0.13  -0.01     0.05   0.16   0.01
  13   1     0.11   0.14  -0.13    -0.00   0.04  -0.07    -0.12  -0.15   0.10
  14   1     0.01   0.16  -0.20     0.05   0.02  -0.01    -0.15  -0.09  -0.00
  15   1     0.04  -0.25  -0.01    -0.07  -0.10   0.01     0.13   0.09   0.01
  16   1    -0.08  -0.12   0.10     0.05   0.02   0.05    -0.11   0.05  -0.12
  17   1     0.06   0.20  -0.00    -0.05   0.13  -0.03     0.13  -0.08   0.01
  18   1     0.04  -0.14   0.22     0.01  -0.00  -0.01     0.17  -0.03   0.14
  19   1    -0.04   0.26  -0.00     0.13   0.01   0.03    -0.08   0.06  -0.00
  20   1    -0.02  -0.04  -0.17    -0.14  -0.04  -0.24    -0.03  -0.02  -0.03
  21   1    -0.04   0.18   0.05     0.14   0.15   0.07    -0.07  -0.01  -0.03
  22   1     0.03  -0.04  -0.13     0.20  -0.02   0.16    -0.02   0.03   0.02
  23   1    -0.05   0.18   0.07    -0.20  -0.09  -0.05    -0.02   0.06   0.04
  24   1     0.04  -0.17  -0.06    -0.22  -0.03  -0.02    -0.00  -0.01   0.00
  25   1    -0.05   0.04   0.13     0.21  -0.04   0.11    -0.01   0.03   0.04
  26   1     0.01   0.04   0.17    -0.11  -0.04  -0.27    -0.14  -0.00  -0.06
  27   1     0.02  -0.17  -0.06     0.09   0.19   0.09    -0.09  -0.03  -0.06
  28   1    -0.01   0.11  -0.15     0.02  -0.04   0.05     0.09  -0.01   0.03
  29   1     0.03  -0.19  -0.01     0.09   0.08   0.03    -0.06  -0.13   0.01
  30   1     0.07   0.10  -0.08     0.01  -0.01   0.04    -0.01   0.08  -0.09
  31   1    -0.07  -0.17  -0.03     0.10   0.14   0.01    -0.12  -0.11  -0.03
  32   1     0.01  -0.02  -0.06    -0.01  -0.00   0.05     0.14   0.29  -0.11
                     25                     26                     27
                        a                      a                      a 
 Frequencies --   937.4056               942.9425               990.3123
 Red. masses --     4.8809                 5.0517                 7.0919
 Frc consts  --     0.0000                 0.0000                 0.0000
 IR Inten    --     1.8668                 6.0835                 1.2142
 Raman Activ --     0.0000                 0.0000                 0.0000
 Depolar     --     0.0000                 0.0000                 0.0000
 Atom AN      X      Y      Z        X      Y      Z        X      Y      Z
   1   6     0.11  -0.05  -0.08     0.30   0.08   0.09     0.17   0.11  -0.01
   2   6     0.04  -0.02   0.04     0.16  -0.15   0.10    -0.01  -0.11   0.06
   3   6    -0.10   0.17   0.07    -0.27   0.15  -0.19    -0.21  -0.20   0.03
   4   6     0.13  -0.17  -0.10    -0.03  -0.13   0.10    -0.16   0.16  -0.16
   5   6    -0.03  -0.08  -0.03     0.03   0.06  -0.05     0.24   0.16   0.12
   6   6    -0.02   0.11   0.10    -0.00   0.02  -0.03     0.11  -0.19   0.04
   7   6     0.01  -0.08  -0.13    -0.03  -0.07   0.09     0.06  -0.00  -0.18
   8   6     0.19   0.06   0.19     0.05   0.08  -0.08    -0.21   0.02   0.07
   9   6    -0.09   0.14  -0.09     0.03   0.03  -0.01    -0.08  -0.14   0.12
  10   6    -0.18  -0.13  -0.10     0.00  -0.05   0.06     0.15   0.16  -0.09
  11   1     0.02   0.18   0.04     0.17   0.45  -0.17     0.07   0.18  -0.04
  12   1     0.02   0.18   0.01    -0.21  -0.12  -0.01    -0.03   0.03  -0.00
  13   1    -0.18  -0.19   0.10    -0.15  -0.05  -0.06    -0.05  -0.02  -0.01
  14   1    -0.22  -0.12  -0.01    -0.02  -0.08   0.03    -0.05  -0.05   0.00
  15   1     0.16   0.06   0.02    -0.12  -0.12   0.02     0.01  -0.04   0.01
  16   1    -0.19   0.04  -0.14    -0.09   0.01  -0.02    -0.12  -0.08   0.00
  17   1     0.16  -0.05  -0.00    -0.17   0.02  -0.05    -0.05  -0.05   0.01
  18   1     0.14  -0.07   0.17    -0.01  -0.01  -0.03    -0.11  -0.01  -0.02
  19   1    -0.10   0.11  -0.01     0.04  -0.06   0.02    -0.10   0.05  -0.04
  20   1    -0.07   0.00  -0.04    -0.09   0.07   0.08     0.24  -0.03   0.09
  21   1    -0.08   0.05   0.00     0.08  -0.12  -0.04    -0.07   0.04   0.03
  22   1    -0.02   0.03   0.03    -0.14   0.06   0.04     0.04  -0.07  -0.12
  23   1    -0.09   0.06   0.03     0.12  -0.08  -0.02     0.02   0.10   0.04
  24   1    -0.04  -0.05  -0.04     0.10   0.08   0.04     0.04  -0.16  -0.08
  25   1     0.02  -0.02   0.01    -0.09  -0.00  -0.10    -0.03   0.03   0.08
  26   1     0.09  -0.00   0.01     0.07  -0.00   0.10    -0.23   0.08  -0.05
  27   1     0.14   0.02   0.06    -0.11  -0.06  -0.05     0.15  -0.01   0.03
  28   1    -0.09   0.00  -0.04     0.02   0.02   0.00    -0.15  -0.07  -0.05
  29   1     0.12   0.12   0.01    -0.10  -0.05  -0.02     0.17  -0.01   0.05
  30   1    -0.01  -0.08   0.09    -0.01   0.01  -0.04    -0.04  -0.04   0.04
  31   1     0.13   0.14   0.03    -0.09  -0.11  -0.01     0.08   0.17   0.01
  32   1    -0.12  -0.24   0.11     0.03   0.06  -0.05     0.02   0.09   0.04
                     28                     29                     30
                        a                      a                      a 
 Frequencies --  1005.8423              1017.1929              1035.9069
 Red. masses --     4.7256                 5.5754                 4.0710
 Frc consts  --     0.0000                 0.0000                 0.0000
 IR Inten    --     0.1239                 1.0838                 0.4378
 Raman Activ --     0.0000                 0.0000                 0.0000
 Depolar     --     0.0000                 0.0000                 0.0000
 Atom AN      X      Y      Z        X      Y      Z        X      Y      Z
   1   6    -0.06  -0.02   0.11     0.05   0.02   0.03    -0.08  -0.11  -0.02
   2   6     0.04   0.01  -0.12    -0.01  -0.02  -0.02     0.03   0.12   0.02
   3   6     0.05   0.08   0.02    -0.06  -0.09   0.03     0.14   0.17  -0.10
   4   6     0.15  -0.07   0.13     0.09   0.06   0.00    -0.03  -0.14   0.14
   5   6    -0.03  -0.11  -0.28     0.05   0.04  -0.08    -0.16   0.08   0.00
   6   6    -0.03   0.16   0.27    -0.22  -0.05   0.01    -0.02  -0.12  -0.10
   7   6    -0.09  -0.07  -0.15    -0.04   0.32   0.19     0.08  -0.01   0.05
   8   6    -0.06   0.04   0.03     0.13  -0.24  -0.14    -0.05   0.00  -0.05
   9   6    -0.05  -0.00   0.10     0.11  -0.12  -0.03    -0.08  -0.14   0.11
  10   6     0.04   0.02  -0.09    -0.22   0.10  -0.03     0.04   0.16  -0.10
  11   1     0.01  -0.04  -0.05     0.03   0.07  -0.03    -0.04  -0.06   0.04
  12   1    -0.07  -0.17  -0.00    -0.04  -0.04  -0.00     0.02   0.04   0.01
  13   1     0.07   0.09  -0.07    -0.01   0.01  -0.02    -0.03  -0.06   0.04
  14   1     0.19   0.05   0.07     0.01  -0.01   0.02    -0.07   0.02  -0.05
  15   1    -0.22   0.00  -0.03    -0.06  -0.02  -0.00     0.10   0.03   0.00
  16   1     0.21   0.14  -0.01    -0.02  -0.03   0.00    -0.06  -0.03   0.02
  17   1    -0.21  -0.14  -0.01    -0.09  -0.07   0.00     0.14   0.16  -0.01
  18   1     0.25   0.12   0.01     0.05   0.03   0.00    -0.17  -0.10  -0.03
  19   1    -0.14  -0.19   0.01    -0.04  -0.03  -0.01     0.21   0.02   0.05
  20   1    -0.03  -0.01   0.03     0.14  -0.03   0.05    -0.24   0.10   0.03
  21   1    -0.14  -0.08  -0.08    -0.07  -0.04  -0.03     0.19  -0.11  -0.02
  22   1    -0.07   0.06  -0.00    -0.06  -0.02  -0.08    -0.20   0.04  -0.03
  23   1     0.08   0.09   0.08    -0.01   0.07   0.02     0.27  -0.12  -0.04
  24   1     0.12  -0.11  -0.06    -0.01   0.00   0.04     0.27  -0.08  -0.00
  25   1    -0.08   0.01   0.00    -0.10   0.13   0.14    -0.19   0.08   0.01
  26   1    -0.07   0.03   0.01    -0.14   0.02  -0.06    -0.22   0.09   0.03
  27   1     0.18  -0.08  -0.00     0.12  -0.06  -0.03     0.19  -0.12  -0.03
  28   1    -0.15  -0.03  -0.08     0.32   0.09   0.11    -0.06  -0.02  -0.04
  29   1     0.19   0.01   0.04     0.02   0.04   0.01     0.14  -0.02   0.04
  30   1    -0.06  -0.08   0.05     0.26   0.19  -0.00     0.05   0.02   0.03
  31   1     0.07   0.14   0.01     0.16   0.00  -0.00     0.12   0.14   0.01
  32   1    -0.01   0.01   0.05    -0.12  -0.38   0.04    -0.03  -0.07   0.04
                     31                     32                     33
                        a                      a                      a 
 Frequencies --  1081.3207              1095.0358              1107.2811
 Red. masses --     7.7934                 8.8551                 7.3073
 Frc consts  --     0.0000                 0.0000                 0.0000
 IR Inten    --     2.2854                 0.0233                 0.3715
 Raman Activ --     0.0000                 0.0000                 0.0000
 Depolar     --     0.0000                 0.0000                 0.0000
 Atom AN      X      Y      Z        X      Y      Z        X      Y      Z
   1   6     0.03   0.36  -0.16    -0.03  -0.15   0.05    -0.04  -0.24   0.06
   2   6    -0.11  -0.42   0.17     0.06   0.17  -0.05     0.20   0.25   0.01
   3   6    -0.14  -0.08  -0.04     0.06   0.11  -0.03    -0.18  -0.22  -0.04
   4   6    -0.08   0.10  -0.04    -0.19  -0.11  -0.02     0.02   0.25   0.01
   5   6     0.11  -0.19  -0.03     0.11   0.08   0.12    -0.00  -0.13  -0.11
   6   6     0.06   0.20   0.14     0.46  -0.05   0.14    -0.14   0.12   0.05
   7   6    -0.23   0.02   0.00    -0.47   0.06  -0.14    -0.02   0.12   0.10
   8   6    -0.01  -0.04  -0.10    -0.06  -0.09  -0.11    -0.08  -0.11  -0.14
   9   6     0.08   0.06   0.05     0.16   0.08   0.01     0.07   0.26   0.09
  10   6    -0.04  -0.07  -0.02    -0.07  -0.10   0.01     0.00  -0.22  -0.00
  11   1    -0.03  -0.12   0.05    -0.00   0.02  -0.00    -0.00   0.02   0.01
  12   1     0.19   0.18  -0.03    -0.05  -0.05   0.01    -0.06  -0.06   0.02
  13   1     0.17   0.16  -0.00    -0.06  -0.06   0.01    -0.10  -0.12   0.03
  14   1     0.01  -0.08   0.03    -0.00   0.04  -0.02     0.08   0.10  -0.03
  15   1     0.06  -0.09   0.05     0.02   0.04  -0.01     0.19   0.08   0.00
  16   1     0.06   0.01   0.02     0.03   0.04  -0.02    -0.19  -0.16   0.04
  17   1     0.10   0.07   0.00     0.02   0.03  -0.01    -0.09  -0.01  -0.00
  18   1     0.05   0.08  -0.03    -0.11  -0.07   0.00    -0.05   0.07  -0.08
  19   1     0.14   0.08  -0.00    -0.11  -0.05  -0.01     0.21   0.08   0.01
  20   1    -0.08  -0.01  -0.07    -0.03   0.05   0.05     0.12  -0.08  -0.06
  21   1     0.25  -0.06  -0.01    -0.02   0.03   0.03     0.14  -0.06  -0.03
  22   1    -0.05   0.09   0.09     0.19  -0.04   0.02     0.01   0.02   0.02
  23   1     0.13  -0.04   0.02     0.20  -0.02   0.04     0.04  -0.01   0.01
  24   1     0.05   0.00   0.00    -0.21   0.02  -0.04     0.10  -0.02   0.02
  25   1    -0.12   0.03  -0.03    -0.22   0.06  -0.01     0.08   0.00   0.03
  26   1     0.02  -0.02  -0.00     0.04  -0.05  -0.05     0.08  -0.07  -0.06
  27   1     0.07  -0.08  -0.04     0.03  -0.04  -0.03     0.08  -0.04  -0.03
  28   1     0.03   0.04  -0.02     0.12   0.06   0.02    -0.05   0.08  -0.08
  29   1     0.11   0.02   0.02     0.08   0.04   0.01     0.20   0.03   0.03
  30   1    -0.02  -0.04   0.02     0.01  -0.02   0.01    -0.14  -0.16   0.04
  31   1     0.02   0.02   0.01    -0.00  -0.03   0.00    -0.05   0.01   0.01
  32   1    -0.02  -0.05   0.02    -0.03  -0.08   0.01     0.00   0.07   0.02
                     34                     35                     36
                        a                      a                      a 
 Frequencies --  1113.5887              1127.5656              1138.2541
 Red. masses --     7.6845                 7.5931                 7.6814
 Frc consts  --     0.0000                 0.0000                 0.0000
 IR Inten    --     0.6705                 0.0152                 0.9054
 Raman Activ --     0.0000                 0.0000                 0.0000
 Depolar     --     0.0000                 0.0000                 0.0000
 Atom AN      X      Y      Z        X      Y      Z        X      Y      Z
   1   6     0.17   0.15  -0.03     0.01   0.01   0.00     0.07  -0.05   0.02
   2   6    -0.38  -0.07  -0.05    -0.09   0.03  -0.05    -0.13   0.13  -0.06
   3   6     0.31  -0.08   0.10     0.22   0.19  -0.03     0.19  -0.04   0.02
   4   6     0.22   0.04   0.14    -0.31  -0.21  -0.05    -0.19   0.03  -0.03
   5   6    -0.25   0.13  -0.08     0.33  -0.10   0.03     0.20  -0.17  -0.04
   6   6     0.00  -0.11  -0.05    -0.24   0.06   0.02    -0.07   0.19   0.13
   7   6    -0.03   0.13   0.06     0.18   0.01   0.04    -0.16   0.09   0.11
   8   6    -0.05  -0.13  -0.10    -0.20   0.03  -0.04     0.34  -0.11   0.00
   9   6     0.02   0.21   0.06     0.20   0.17   0.06    -0.33  -0.15  -0.05
  10   6     0.03  -0.17   0.00    -0.07  -0.17   0.03     0.13   0.18  -0.07
  11   1     0.06   0.16  -0.05     0.01   0.03  -0.01     0.03   0.10  -0.02
  12   1    -0.04   0.04  -0.01    -0.02  -0.00  -0.00    -0.06  -0.02   0.00
  13   1    -0.04   0.00  -0.02    -0.01  -0.00  -0.01    -0.07  -0.06  -0.00
  14   1    -0.27  -0.11  -0.04    -0.08  -0.02  -0.02    -0.12   0.00  -0.04
  15   1    -0.22  -0.11  -0.02    -0.10  -0.02  -0.02    -0.07  -0.02  -0.02
  16   1     0.05  -0.05   0.05     0.10   0.08  -0.01     0.04  -0.03   0.03
  17   1     0.07  -0.01   0.03     0.13   0.10  -0.00     0.08   0.06   0.01
  18   1    -0.08  -0.06  -0.01    -0.14  -0.10  -0.01    -0.12  -0.02  -0.05
  19   1     0.10  -0.02   0.04    -0.24  -0.14  -0.03    -0.05  -0.06  -0.01
  20   1     0.02   0.00   0.04     0.14  -0.05   0.01     0.13  -0.08  -0.04
  21   1    -0.16   0.01  -0.03     0.20  -0.10  -0.00     0.19  -0.07  -0.01
  22   1     0.15  -0.09  -0.06    -0.12   0.04  -0.01     0.02   0.04   0.06
  23   1     0.09  -0.03  -0.01    -0.15   0.08   0.02    -0.02   0.04   0.03
  24   1     0.00  -0.01   0.01     0.15  -0.05   0.00    -0.07   0.08   0.04
  25   1     0.04   0.02   0.04     0.10  -0.02   0.02    -0.03   0.02   0.01
  26   1     0.07  -0.07  -0.07    -0.08   0.02  -0.03     0.19  -0.08   0.02
  27   1     0.08  -0.03  -0.02    -0.09   0.05  -0.00     0.20  -0.11  -0.01
  28   1    -0.05   0.06  -0.07     0.08   0.07   0.00    -0.18  -0.08  -0.05
  29   1     0.13   0.02   0.01     0.18   0.09   0.03    -0.21  -0.14  -0.05
  30   1    -0.12  -0.13   0.02    -0.04  -0.06   0.02    -0.01   0.02  -0.01
  31   1    -0.05   0.00   0.01    -0.03  -0.04   0.01     0.03   0.09  -0.01
  32   1     0.02   0.09   0.01    -0.02  -0.03   0.01     0.03   0.09  -0.01
                     37                     38                     39
                        a                      a                      a 
 Frequencies --  1144.8223              1177.4144              1190.3496
 Red. masses --     8.0049                 7.1489                 5.8016
 Frc consts  --     0.0000                 0.0000                 0.0000
 IR Inten    --     0.0077                 0.2365                 2.7630
 Raman Activ --     0.0000                 0.0000                 0.0000
 Depolar     --     0.0000                 0.0000                 0.0000
 Atom AN      X      Y      Z        X      Y      Z        X      Y      Z
   1   6    -0.11   0.06  -0.03    -0.04   0.01  -0.12     0.03  -0.00   0.07
   2   6     0.19  -0.15   0.07     0.06  -0.04   0.22    -0.05   0.02  -0.12
   3   6    -0.17   0.24  -0.08    -0.01   0.10  -0.27     0.02  -0.07   0.13
   4   6    -0.01  -0.23  -0.03     0.00  -0.07   0.32    -0.03   0.07  -0.12
   5   6     0.07   0.18   0.11     0.00   0.08  -0.31     0.01  -0.06   0.05
   6   6    -0.09  -0.18  -0.13    -0.05  -0.03   0.26     0.02  -0.03   0.04
   7   6     0.04   0.25   0.20    -0.00   0.05  -0.21     0.08   0.08  -0.14
   8   6     0.13  -0.26  -0.10     0.01  -0.03   0.19     0.03  -0.20   0.28
   9   6    -0.19   0.17   0.00    -0.00  -0.00  -0.17    -0.06   0.16  -0.35
  10   6     0.12  -0.10  -0.02    -0.00   0.01   0.09     0.06  -0.09   0.22
  11   1    -0.05  -0.15   0.04    -0.04  -0.07   0.06     0.02   0.04  -0.04
  12   1     0.09   0.02  -0.01     0.10   0.13  -0.01    -0.05  -0.07   0.00
  13   1     0.10   0.08   0.00     0.01  -0.03   0.06    -0.01   0.02  -0.03
  14   1     0.14  -0.00   0.05    -0.04   0.02  -0.06     0.01  -0.02   0.03
  15   1     0.07   0.02   0.03     0.12  -0.09   0.04    -0.06   0.05  -0.02
  16   1     0.01   0.12  -0.07    -0.07  -0.08   0.07     0.01   0.01  -0.02
  17   1    -0.04   0.00  -0.03    -0.04   0.17  -0.04     0.05  -0.05   0.03
  18   1     0.04  -0.06   0.07    -0.17  -0.04  -0.10     0.07   0.04   0.02
  19   1    -0.17  -0.04  -0.01     0.10  -0.16   0.06     0.03   0.09  -0.02
  20   1     0.01   0.05   0.08     0.18  -0.04   0.11    -0.17   0.05  -0.03
  21   1    -0.10   0.02   0.02    -0.09  -0.15  -0.11     0.14  -0.01   0.02
  22   1     0.00  -0.06  -0.07     0.08  -0.06  -0.11    -0.21   0.07  -0.01
  23   1    -0.03   0.01  -0.02     0.02   0.15   0.09     0.10  -0.01   0.01
  24   1    -0.05   0.04   0.05    -0.07  -0.10  -0.07     0.06  -0.12  -0.06
  25   1    -0.02   0.08   0.10     0.09  -0.01   0.08    -0.21   0.12   0.11
  26   1     0.09  -0.09  -0.08     0.01  -0.01  -0.06    -0.21   0.04  -0.14
  27   1     0.20  -0.07  -0.01     0.01   0.10   0.07     0.23   0.10   0.12
  28   1    -0.12   0.05  -0.10     0.02  -0.04   0.06     0.06   0.00   0.07
  29   1     0.01  -0.05  -0.02    -0.11   0.07  -0.04    -0.09   0.18  -0.07
  30   1    -0.14  -0.13   0.01     0.02   0.06  -0.04    -0.04   0.04  -0.09
  31   1    -0.06   0.04   0.01    -0.06  -0.10  -0.01    -0.18  -0.21  -0.01
  32   1     0.05   0.16  -0.00     0.03   0.03  -0.04     0.08   0.13  -0.10
                     40                     41                     42
                        a                      a                      a 
 Frequencies --  1223.6485              1246.6158              1256.3423
 Red. masses --     4.7045                 3.7418                 3.7365
 Frc consts  --     0.0000                 0.0000                 0.0000
 IR Inten    --     0.6513                 0.5279                 0.2808
 Raman Activ --     0.0000                 0.0000                 0.0000
 Depolar     --     0.0000                 0.0000                 0.0000
 Atom AN      X      Y      Z        X      Y      Z        X      Y      Z
   1   6     0.09  -0.12  -0.25     0.00   0.01   0.05    -0.07   0.08   0.08
   2   6    -0.13   0.16   0.31    -0.02  -0.01  -0.06     0.10  -0.06  -0.04
   3   6     0.08  -0.13  -0.17     0.02  -0.05  -0.01     0.09   0.06  -0.10
   4   6    -0.03   0.06   0.02    -0.05   0.06   0.07     0.03   0.08   0.15
   5   6     0.03  -0.05   0.09     0.05  -0.03  -0.12     0.00  -0.16  -0.02
   6   6     0.07   0.01  -0.11     0.09  -0.11   0.13     0.17   0.16  -0.11
   7   6     0.05  -0.05   0.07     0.18   0.04  -0.11     0.02  -0.18   0.13
   8   6     0.02  -0.04  -0.02     0.06  -0.10   0.01     0.06   0.01  -0.06
   9   6    -0.03   0.05  -0.01    -0.06   0.09   0.21    -0.04   0.06  -0.05
  10   6     0.03  -0.03   0.01     0.08  -0.08  -0.22     0.03  -0.04   0.04
  11   1    -0.03   0.06   0.10     0.01   0.01  -0.02    -0.01  -0.08  -0.02
  12   1     0.08   0.26  -0.01    -0.02  -0.04   0.00     0.00  -0.09   0.00
  13   1    -0.14  -0.22   0.13     0.01   0.02  -0.02     0.07   0.10  -0.04
  14   1     0.08   0.23  -0.15    -0.02  -0.03   0.02    -0.20  -0.16   0.02
  15   1    -0.05  -0.27   0.03     0.03   0.05  -0.01     0.08   0.08   0.00
  16   1     0.18  -0.02   0.11    -0.05  -0.05   0.01    -0.22  -0.15   0.02
  17   1    -0.18   0.04  -0.02     0.10   0.06   0.01    -0.04   0.03  -0.02
  18   1     0.23   0.17  -0.01     0.03   0.07  -0.04    -0.16  -0.04  -0.06
  19   1    -0.19  -0.14  -0.02     0.08  -0.00   0.02    -0.07  -0.14   0.02
  20   1    -0.11   0.03  -0.02    -0.19   0.09   0.04     0.19  -0.13  -0.07
  21   1    -0.10   0.10   0.04     0.01  -0.05  -0.04    -0.30   0.17   0.03
  22   1    -0.09   0.06   0.05    -0.24   0.06  -0.05    -0.12   0.12   0.14
  23   1    -0.10  -0.02  -0.03    -0.15   0.14   0.06    -0.19  -0.03  -0.04
  24   1     0.01   0.04   0.03    -0.27   0.03  -0.02    -0.08   0.14   0.07
  25   1    -0.16   0.05  -0.02    -0.17   0.11   0.09    -0.20   0.02  -0.10
  26   1    -0.12   0.04  -0.00    -0.06   0.01  -0.02    -0.30   0.15   0.05
  27   1     0.04  -0.02  -0.00    -0.27   0.16   0.03     0.16  -0.11  -0.03
  28   1     0.03   0.04  -0.01     0.22   0.23  -0.04     0.05   0.05  -0.01
  29   1     0.02   0.01  -0.00    -0.21  -0.26  -0.02     0.06   0.06  -0.00
  30   1    -0.03  -0.03  -0.00    -0.11  -0.18   0.09    -0.03  -0.01  -0.02
  31   1    -0.02  -0.00   0.00     0.07   0.20   0.01    -0.04  -0.03   0.00
  32   1     0.01   0.02  -0.01    -0.03   0.02   0.08     0.02   0.03  -0.02
                     43                     44                     45
                        a                      a                      a 
 Frequencies --  1272.5777              1278.9487              1283.6426
 Red. masses --     3.1231                 2.6429                 2.6694
 Frc consts  --     0.0000                 0.0000                 0.0000
 IR Inten    --     0.2096                 0.1238                 0.1734
 Raman Activ --     0.0000                 0.0000                 0.0000
 Depolar     --     0.0000                 0.0000                 0.0000
 Atom AN      X      Y      Z        X      Y      Z        X      Y      Z
   1   6    -0.04   0.01  -0.12     0.03  -0.02   0.07    -0.06   0.07   0.08
   2   6     0.13  -0.00   0.07    -0.11   0.03   0.03     0.07   0.02   0.06
   3   6     0.08   0.15   0.10    -0.11  -0.07  -0.06     0.14  -0.06  -0.18
   4   6     0.09   0.02  -0.10     0.00  -0.12  -0.03     0.03   0.10  -0.01
   5   6    -0.09  -0.08   0.11    -0.01   0.09  -0.03     0.02  -0.04   0.11
   6   6    -0.05   0.10  -0.02    -0.08   0.12  -0.05    -0.02   0.01  -0.07
   7   6    -0.06   0.02  -0.11    -0.06  -0.14   0.04    -0.01   0.13  -0.07
   8   6    -0.01   0.02   0.13     0.01   0.02   0.11    -0.06  -0.07   0.08
   9   6    -0.01   0.04   0.03    -0.05   0.05  -0.02     0.03  -0.04   0.03
  10   6     0.04  -0.06  -0.12     0.06  -0.07  -0.08    -0.02   0.04  -0.02
  11   1    -0.04  -0.07   0.06     0.02   0.06  -0.02    -0.01  -0.06  -0.01
  12   1     0.06   0.08  -0.01    -0.04  -0.04   0.01    -0.01  -0.09   0.00
  13   1     0.00  -0.04   0.05    -0.00   0.02  -0.03     0.06   0.08  -0.03
  14   1     0.05   0.02  -0.00    -0.11  -0.02  -0.03    -0.40  -0.21  -0.04
  15   1    -0.28  -0.18  -0.00     0.31   0.14   0.02     0.24   0.10   0.02
  16   1    -0.17  -0.02  -0.06     0.39   0.20   0.03    -0.02  -0.11   0.07
  17   1    -0.23  -0.19  -0.00    -0.06   0.00  -0.01    -0.26  -0.02  -0.04
  18   1    -0.21  -0.17   0.04     0.01  -0.04   0.03     0.11   0.09  -0.00
  19   1    -0.07   0.02  -0.02     0.12   0.10   0.01    -0.26  -0.16  -0.03
  20   1     0.20  -0.13  -0.10     0.14  -0.03   0.02    -0.12   0.03  -0.03
  21   1     0.04   0.05   0.04    -0.00  -0.04  -0.02     0.02   0.05   0.04
  22   1    -0.06   0.05   0.05     0.35  -0.11   0.02    -0.01   0.01   0.02
  23   1     0.32  -0.16  -0.04    -0.09  -0.02  -0.02     0.08  -0.06  -0.03
  24   1     0.11  -0.09  -0.04     0.26  -0.04   0.01     0.28  -0.17  -0.05
  25   1     0.09  -0.03   0.02    -0.12  -0.00  -0.06    -0.13   0.09   0.08
  26   1    -0.04   0.02  -0.01    -0.17   0.08   0.01     0.29  -0.16  -0.07
  27   1     0.01   0.05   0.05     0.11  -0.01   0.03    -0.18   0.14   0.05
  28   1     0.25   0.16   0.03     0.27   0.18   0.04    -0.06  -0.06   0.01
  29   1    -0.27  -0.17  -0.05    -0.20  -0.11  -0.04    -0.03  -0.04   0.00
  30   1    -0.06  -0.10   0.05    -0.07  -0.09   0.02     0.02   0.02   0.01
  31   1     0.03   0.10   0.00     0.00   0.07   0.00     0.02   0.01  -0.00
  32   1    -0.01   0.02   0.04     0.00   0.03   0.02    -0.01  -0.04   0.01
                     46                     47                     48
                        a                      a                      a 
 Frequencies --  1286.5100              1291.2733              1300.4121
 Red. masses --     2.2706                 1.9902                 2.2904
 Frc consts  --     0.0000                 0.0000                 0.0000
 IR Inten    --     0.2453                 0.1565                 0.5926
 Raman Activ --     0.0000                 0.0000                 0.0000
 Depolar     --     0.0000                 0.0000                 0.0000
 Atom AN      X      Y      Z        X      Y      Z        X      Y      Z
   1   6    -0.03   0.01  -0.08     0.02  -0.03  -0.02    -0.05   0.04  -0.01
   2   6     0.10   0.02   0.08     0.01  -0.06  -0.12     0.13   0.01  -0.00
   3   6     0.02   0.09   0.13    -0.08   0.01   0.03     0.09  -0.01  -0.02
   4   6     0.08   0.04  -0.10     0.01   0.02   0.12     0.04   0.12  -0.04
   5   6     0.02  -0.02  -0.12    -0.05   0.04  -0.00    -0.01   0.09  -0.00
   6   6     0.08   0.04   0.03     0.05   0.10  -0.11    -0.04  -0.10   0.07
   7   6     0.06  -0.06   0.05    -0.06  -0.02   0.02    -0.10  -0.09   0.08
   8   6     0.03  -0.09  -0.03    -0.03  -0.05   0.09    -0.01   0.11   0.00
   9   6    -0.02  -0.02   0.02    -0.01  -0.02   0.00    -0.03   0.01  -0.05
  10   6    -0.00   0.04   0.04     0.02   0.01  -0.02     0.02  -0.05  -0.01
  11   1    -0.03  -0.05   0.04     0.01   0.02  -0.02    -0.02  -0.07   0.01
  12   1     0.04   0.05  -0.01     0.01   0.02  -0.00     0.02  -0.02  -0.01
  13   1     0.00  -0.02   0.04    -0.02  -0.02  -0.00     0.02   0.02   0.01
  14   1    -0.03  -0.01  -0.01     0.28   0.09   0.06    -0.12  -0.09   0.01
  15   1    -0.15  -0.12   0.01    -0.20  -0.04  -0.03    -0.11  -0.05  -0.01
  16   1     0.01   0.07  -0.05    -0.29  -0.13  -0.03    -0.25  -0.17   0.01
  17   1    -0.29  -0.24   0.00     0.42   0.19   0.02    -0.06  -0.02  -0.01
  18   1    -0.31  -0.21  -0.01     0.09   0.09  -0.03     0.13   0.10  -0.01
  19   1     0.14   0.16  -0.01    -0.10  -0.13   0.01    -0.22  -0.10  -0.03
  20   1    -0.12   0.06   0.01     0.10  -0.03   0.02    -0.32   0.16   0.06
  21   1     0.12  -0.11  -0.05    -0.04   0.03   0.00     0.33  -0.17  -0.03
  22   1     0.17  -0.05   0.00     0.24  -0.05   0.05     0.29  -0.16  -0.08
  23   1    -0.39   0.15   0.03    -0.17  -0.02  -0.04    -0.17   0.11   0.04
  24   1     0.10  -0.00   0.02     0.39  -0.13  -0.02    -0.01   0.06   0.04
  25   1    -0.36   0.13   0.00    -0.28   0.09  -0.00     0.20  -0.12  -0.08
  26   1     0.05  -0.04  -0.03     0.13  -0.08  -0.05    -0.16   0.10   0.05
  27   1    -0.15   0.07   0.01    -0.08   0.08   0.04     0.24  -0.14  -0.02
  28   1    -0.12  -0.07  -0.02     0.05   0.01   0.03     0.17   0.09   0.03
  29   1     0.13   0.05   0.03    -0.05  -0.04  -0.01    -0.07  -0.01  -0.02
  30   1     0.01   0.03  -0.02    -0.01  -0.01   0.00    -0.02  -0.03   0.00
  31   1    -0.01  -0.03  -0.00     0.01   0.02  -0.00    -0.01   0.02   0.00
  32   1     0.00  -0.03  -0.02    -0.00  -0.02   0.00     0.01   0.04   0.00
                     49                     50                     51
                        a                      a                      a 
 Frequencies --  1328.7645              1349.5578              1354.1714
 Red. masses --     3.6488                 4.3177                 4.6025
 Frc consts  --     0.0000                 0.0000                 0.0000
 IR Inten    --     0.0023                 0.0456                 3.8442
 Raman Activ --     0.0000                 0.0000                 0.0000
 Depolar     --     0.0000                 0.0000                 0.0000
 Atom AN      X      Y      Z        X      Y      Z        X      Y      Z
   1   6     0.02  -0.01  -0.00     0.08  -0.06   0.05    -0.00   0.00  -0.00
   2   6    -0.05  -0.01  -0.00    -0.33  -0.18  -0.01     0.02   0.01  -0.00
   3   6     0.01   0.01   0.04     0.01   0.09  -0.04    -0.01  -0.01   0.00
   4   6    -0.04   0.05   0.05     0.30   0.18   0.00    -0.01   0.00   0.00
   5   6     0.23  -0.12  -0.07    -0.06  -0.07   0.03     0.04  -0.00  -0.01
   6   6     0.14  -0.11  -0.07     0.00  -0.00   0.03    -0.00  -0.00  -0.02
   7   6    -0.14   0.12   0.07    -0.01  -0.00  -0.01    -0.01  -0.01   0.04
   8   6    -0.23   0.13   0.07     0.03  -0.01  -0.01    -0.08  -0.10   0.02
   9   6     0.02  -0.06  -0.05     0.02   0.02   0.01     0.47   0.26   0.06
  10   6    -0.01  -0.02  -0.03    -0.00   0.00  -0.00    -0.10   0.08  -0.06
  11   1     0.01   0.02  -0.00     0.05   0.15  -0.05    -0.00  -0.01   0.00
  12   1    -0.00   0.01   0.00    -0.02   0.06   0.02     0.00  -0.00  -0.00
  13   1    -0.01  -0.01  -0.00     0.01   0.02  -0.06    -0.00  -0.00   0.00
  14   1     0.05   0.04   0.00     0.35   0.20   0.01    -0.02  -0.01   0.00
  15   1     0.01   0.01   0.00     0.34   0.20   0.02    -0.02  -0.01  -0.00
  16   1     0.02   0.02  -0.00    -0.04  -0.02   0.02     0.00   0.00  -0.00
  17   1    -0.02  -0.03   0.01    -0.05  -0.05  -0.02     0.01   0.00   0.00
  18   1    -0.17  -0.06  -0.06    -0.32  -0.19  -0.03    -0.00   0.01  -0.01
  19   1     0.15   0.07   0.02    -0.35  -0.17  -0.04     0.02   0.01   0.00
  20   1    -0.27   0.11   0.02    -0.13   0.02  -0.05    -0.04   0.02   0.01
  21   1    -0.32   0.11  -0.00     0.13  -0.04   0.01    -0.04   0.01  -0.00
  22   1    -0.22   0.08   0.03    -0.00  -0.00  -0.00     0.03  -0.01   0.00
  23   1    -0.23   0.11   0.01     0.01   0.01   0.01    -0.04   0.01  -0.00
  24   1     0.23  -0.11  -0.01    -0.03   0.01   0.00     0.02   0.01   0.01
  25   1     0.22  -0.07  -0.02     0.02  -0.01  -0.00    -0.01  -0.00  -0.01
  26   1     0.28  -0.12  -0.01    -0.04   0.02   0.00    -0.19   0.05  -0.07
  27   1     0.30  -0.12   0.01    -0.02   0.00  -0.00     0.15  -0.04   0.01
  28   1     0.17   0.05   0.07    -0.03  -0.01  -0.01    -0.44  -0.25  -0.08
  29   1    -0.12  -0.04  -0.03    -0.02  -0.01  -0.00    -0.46  -0.24  -0.09
  30   1     0.02   0.00   0.01    -0.00  -0.00   0.00    -0.02  -0.05   0.08
  31   1     0.03   0.04   0.00    -0.00  -0.01  -0.00     0.02  -0.09  -0.03
  32   1     0.00   0.03   0.00    -0.00  -0.01   0.00    -0.07  -0.20   0.04
                     52                     53                     54
                        a                      a                      a 
 Frequencies --  1370.7766              1378.0214              1380.5238
 Red. masses --     4.7550                 5.4725                 5.5186
 Frc consts  --     0.0000                 0.0000                 0.0000
 IR Inten    --     1.7341                 1.1177                 0.8215
 Raman Activ --     0.0000                 0.0000                 0.0000
 Depolar     --     0.0000                 0.0000                 0.0000
 Atom AN      X      Y      Z        X      Y      Z        X      Y      Z
   1   6    -0.00   0.00  -0.00    -0.04  -0.00  -0.01    -0.04   0.00  -0.01
   2   6     0.03   0.02  -0.01     0.17   0.11  -0.01     0.17   0.12   0.01
   3   6    -0.03  -0.02   0.02    -0.26  -0.14  -0.01    -0.26  -0.15  -0.02
   4   6    -0.03   0.06   0.04     0.20   0.14   0.03     0.25   0.07   0.02
   5   6     0.33  -0.12  -0.02     0.13  -0.11  -0.00    -0.21   0.02   0.00
   6   6    -0.19   0.04  -0.02    -0.23   0.10   0.03     0.25  -0.11  -0.01
   7   6    -0.19   0.04  -0.02     0.26  -0.10  -0.03    -0.22   0.11   0.02
   8   6     0.33  -0.12  -0.01    -0.19   0.08  -0.00     0.15  -0.06   0.00
   9   6    -0.08   0.04   0.02     0.02  -0.03  -0.01    -0.02   0.02   0.00
  10   6     0.03   0.00   0.01    -0.00   0.00   0.00    -0.00  -0.01  -0.00
  11   1    -0.00  -0.01   0.00    -0.01  -0.03   0.01    -0.01  -0.03   0.01
  12   1     0.00  -0.00  -0.00     0.02  -0.02  -0.00     0.02  -0.02  -0.01
  13   1    -0.00  -0.01   0.01     0.01  -0.01   0.02     0.01  -0.01   0.02
  14   1    -0.01  -0.01   0.00    -0.13  -0.08   0.01    -0.16  -0.09   0.00
  15   1    -0.05  -0.02  -0.00    -0.15  -0.09  -0.02    -0.12  -0.09  -0.01
  16   1    -0.01  -0.00   0.00     0.20   0.11   0.01     0.28   0.15   0.01
  17   1     0.05   0.01   0.01     0.24   0.12   0.01     0.21   0.13   0.01
  18   1    -0.11  -0.03  -0.04    -0.23  -0.12  -0.04    -0.14  -0.09  -0.03
  19   1     0.05   0.01   0.01    -0.18  -0.09  -0.01    -0.21  -0.07  -0.02
  20   1    -0.32   0.14   0.01    -0.19   0.07  -0.02     0.09  -0.06  -0.00
  21   1    -0.32   0.11   0.01    -0.10   0.05   0.01     0.18  -0.03  -0.00
  22   1     0.18  -0.08   0.01     0.16  -0.06  -0.01    -0.27   0.10   0.02
  23   1     0.17  -0.05  -0.01     0.21  -0.08  -0.01    -0.19   0.09   0.02
  24   1     0.18  -0.05  -0.02    -0.23   0.09   0.01     0.17  -0.08  -0.02
  25   1     0.18  -0.08   0.00    -0.20   0.08   0.02     0.21  -0.08  -0.02
  26   1    -0.31   0.15   0.00     0.16  -0.08   0.01    -0.12   0.06  -0.01
  27   1    -0.32   0.11   0.00     0.16  -0.05  -0.00    -0.12   0.04   0.00
  28   1    -0.07  -0.00  -0.04     0.06   0.02   0.01    -0.04  -0.01  -0.01
  29   1     0.10   0.03   0.02    -0.02   0.01  -0.00     0.02  -0.01   0.00
  30   1    -0.02  -0.01   0.00     0.00   0.01  -0.01     0.01   0.00   0.01
  31   1    -0.04  -0.02  -0.00     0.02   0.01   0.00    -0.01   0.00   0.00
  32   1    -0.00   0.01   0.02     0.01  -0.01  -0.02    -0.00   0.02   0.01
                     55                     56                     57
                        a                      a                      a 
 Frequencies --  1415.8132              1416.5959              1490.3396
 Red. masses --     3.2265                 3.1826                 1.9076
 Frc consts  --     0.0000                 0.0000                 0.0000
 IR Inten    --     2.2348                 0.8258                 0.6222
 Raman Activ --     0.0000                 0.0000                 0.0000
 Depolar     --     0.0000                 0.0000                 0.0000
 Atom AN      X      Y      Z        X      Y      Z        X      Y      Z
   1   6    -0.00   0.00  -0.00    -0.24  -0.35   0.08    -0.00   0.00  -0.00
   2   6     0.00   0.00   0.00     0.08   0.04   0.01    -0.01  -0.00  -0.01
   3   6    -0.00  -0.00  -0.00     0.01  -0.02   0.01     0.05  -0.08   0.05
   4   6     0.00   0.00  -0.00    -0.03  -0.01  -0.01     0.03  -0.03   0.03
   5   6    -0.01   0.00   0.00     0.01   0.00  -0.00     0.00   0.05   0.05
   6   6     0.00  -0.01   0.00    -0.00  -0.00  -0.00    -0.03  -0.09  -0.10
   7   6     0.01   0.01   0.01    -0.00   0.00   0.00     0.01  -0.04  -0.04
   8   6    -0.01   0.05   0.01     0.00  -0.00   0.00     0.03   0.10   0.13
   9   6    -0.09  -0.05  -0.02    -0.00   0.00   0.00     0.04  -0.08   0.05
  10   6     0.24   0.35  -0.05     0.00   0.00  -0.00     0.03  -0.02  -0.02
  11   1    -0.00  -0.00   0.00     0.07   0.46  -0.18     0.00   0.01  -0.00
  12   1    -0.00  -0.00  -0.00     0.30   0.41   0.08     0.01  -0.01  -0.00
  13   1    -0.00  -0.00   0.00     0.38   0.29  -0.18     0.01  -0.00   0.01
  14   1    -0.00  -0.00   0.00    -0.08  -0.02  -0.05     0.01  -0.01   0.03
  15   1    -0.00  -0.00  -0.00    -0.09   0.00   0.00     0.02  -0.02  -0.00
  16   1     0.01   0.00  -0.00    -0.01  -0.01   0.00    -0.05   0.09  -0.22
  17   1     0.00   0.00   0.00    -0.01  -0.01   0.00    -0.11   0.21   0.04
  18   1    -0.00  -0.00  -0.00     0.03   0.02   0.01    -0.01   0.04  -0.09
  19   1    -0.00  -0.00  -0.00     0.03   0.01   0.00    -0.05   0.08   0.01
  20   1     0.00  -0.00  -0.00     0.00   0.00   0.00    -0.00  -0.02  -0.19
  21   1     0.01  -0.00  -0.00    -0.00   0.00   0.00    -0.06  -0.17  -0.03
  22   1    -0.02   0.01   0.00    -0.00  -0.00  -0.00     0.03   0.03   0.32
  23   1     0.00   0.01   0.00    -0.00  -0.00  -0.00     0.11   0.30   0.05
  24   1    -0.02  -0.03  -0.01     0.00  -0.00  -0.00     0.03   0.13   0.03
  25   1     0.04  -0.02  -0.03     0.00  -0.00   0.00    -0.01   0.02   0.13
  26   1     0.06  -0.02  -0.02    -0.00   0.00  -0.00    -0.00  -0.02  -0.40
  27   1     0.00  -0.04  -0.01    -0.00   0.00  -0.00    -0.15  -0.36  -0.10
  28   1     0.10   0.02   0.07    -0.00  -0.00  -0.00    -0.01   0.11  -0.21
  29   1     0.11   0.00   0.01     0.00  -0.00   0.00    -0.12   0.20   0.04
  30   1    -0.37  -0.29   0.16    -0.00  -0.00   0.00     0.04   0.03  -0.02
  31   1    -0.30  -0.40  -0.12    -0.00  -0.00  -0.00    -0.10   0.04   0.00
  32   1    -0.09  -0.46   0.15    -0.00  -0.00   0.00    -0.03   0.00   0.10
                     58                     59                     60
                        a                      a                      a 
 Frequencies --  1491.1397              1493.2402              1494.7591
 Red. masses --     1.9083                 1.9163                 1.8362
 Frc consts  --     0.0000                 0.0000                 0.0000
 IR Inten    --     0.4945                 0.0572                 0.1857
 Raman Activ --     0.0000                 0.0000                 0.0000
 Depolar     --     0.0000                 0.0000                 0.0000
 Atom AN      X      Y      Z        X      Y      Z        X      Y      Z
   1   6     0.01  -0.01   0.01    -0.01   0.01  -0.00    -0.00   0.01  -0.01
   2   6    -0.02   0.06  -0.03    -0.02  -0.02  -0.00     0.03  -0.05   0.03
   3   6    -0.01   0.06  -0.03     0.07  -0.13   0.08    -0.04   0.03  -0.03
   4   6     0.05  -0.13   0.09     0.03  -0.02   0.02    -0.05   0.11  -0.08
   5   6     0.05   0.09   0.12    -0.00   0.03   0.03     0.00   0.02   0.01
   6   6     0.05   0.05   0.07    -0.02  -0.06  -0.07     0.02  -0.01   0.00
   7   6    -0.04  -0.05  -0.07    -0.01  -0.03  -0.03    -0.04  -0.10  -0.11
   8   6    -0.02  -0.01  -0.02    -0.04  -0.06  -0.10    -0.01   0.05   0.04
   9   6    -0.00   0.03  -0.02    -0.05   0.12  -0.07    -0.01   0.09  -0.05
  10   6     0.02  -0.01  -0.00    -0.01   0.01   0.02     0.06  -0.05  -0.02
  11   1    -0.00  -0.02   0.01     0.01   0.02  -0.01     0.00   0.01  -0.00
  12   1    -0.03   0.05   0.01     0.03  -0.02  -0.00     0.02  -0.04  -0.01
  13   1    -0.01   0.02  -0.05     0.02  -0.01   0.03     0.01  -0.02   0.04
  14   1     0.01  -0.06   0.13     0.02   0.00   0.01    -0.03   0.07  -0.15
  15   1     0.06  -0.13  -0.02     0.01   0.00   0.00    -0.08   0.14   0.03
  16   1     0.02  -0.08   0.16    -0.08   0.15  -0.36     0.04  -0.03   0.11
  17   1     0.08  -0.15  -0.02    -0.19   0.35   0.06     0.07  -0.09  -0.02
  18   1    -0.03   0.16  -0.36    -0.01   0.02  -0.06     0.04  -0.13   0.31
  19   1    -0.19   0.34   0.04    -0.04   0.05   0.01     0.17  -0.29  -0.03
  20   1    -0.02  -0.04  -0.38    -0.01  -0.01  -0.10    -0.01   0.00  -0.04
  21   1    -0.15  -0.34  -0.06    -0.04  -0.09  -0.02    -0.01  -0.04  -0.01
  22   1    -0.05  -0.01  -0.19     0.04   0.02   0.23    -0.02   0.00  -0.03
  23   1    -0.08  -0.18  -0.03     0.09   0.22   0.04    -0.03  -0.02  -0.01
  24   1     0.08   0.21   0.04     0.01   0.06   0.01     0.13   0.35   0.07
  25   1     0.03   0.01   0.22     0.01  -0.00   0.05     0.04   0.03   0.37
  26   1     0.01  -0.00   0.05     0.00   0.02   0.30     0.00  -0.01  -0.14
  27   1     0.03   0.04   0.01     0.12   0.26   0.07    -0.04  -0.13  -0.04
  28   1     0.00  -0.04   0.08     0.02  -0.16   0.32     0.01  -0.13   0.24
  29   1     0.04  -0.07  -0.01     0.18  -0.31  -0.05     0.13  -0.23  -0.04
  30   1     0.00   0.02  -0.03    -0.03   0.00  -0.03     0.04   0.10  -0.13
  31   1    -0.06   0.03   0.00     0.04   0.02   0.01    -0.23   0.15   0.02
  32   1    -0.02  -0.02   0.05     0.02  -0.02  -0.06    -0.07  -0.04   0.17
                     61                     62                     63
                        a                      a                      a 
 Frequencies --  1496.8416              1498.7987              1500.2749
 Red. masses --     1.9359                 1.9780                 1.9038
 Frc consts  --     0.0000                 0.0000                 0.0000
 IR Inten    --     0.2083                 0.0338                 0.1565
 Raman Activ --     0.0000                 0.0000                 0.0000
 Depolar     --     0.0000                 0.0000                 0.0000
 Atom AN      X      Y      Z        X      Y      Z        X      Y      Z
   1   6    -0.01   0.02  -0.01     0.00  -0.00   0.00     0.03  -0.04   0.02
   2   6     0.03  -0.06   0.04    -0.02   0.02  -0.01    -0.05   0.16  -0.09
   3   6    -0.01  -0.04   0.02     0.02  -0.01   0.01    -0.04   0.08  -0.05
   4   6    -0.03   0.09  -0.05     0.02  -0.05   0.02    -0.05   0.08  -0.06
   5   6     0.04   0.10   0.11    -0.04  -0.09  -0.11    -0.00   0.04   0.03
   6   6     0.04   0.01   0.02    -0.01  -0.02  -0.02    -0.02  -0.08  -0.08
   7   6    -0.04  -0.01  -0.02    -0.06  -0.11  -0.13    -0.00  -0.01  -0.01
   8   6    -0.02  -0.07  -0.09    -0.04  -0.06  -0.09    -0.01  -0.02  -0.03
   9   6     0.03  -0.12   0.06     0.05  -0.10   0.04    -0.01  -0.00   0.00
  10   6    -0.02   0.05   0.00     0.04   0.00  -0.02    -0.02   0.02   0.01
  11   1     0.01   0.02  -0.01    -0.00  -0.00   0.00    -0.02  -0.06   0.04
  12   1     0.04  -0.06  -0.01    -0.01   0.02   0.00    -0.12   0.15   0.02
  13   1     0.02  -0.03   0.07    -0.00   0.01  -0.02    -0.03   0.07  -0.16
  14   1    -0.03   0.08  -0.18     0.02  -0.03   0.07     0.07  -0.19   0.41
  15   1    -0.10   0.17   0.03     0.05  -0.07  -0.01     0.21  -0.40  -0.07
  16   1     0.00   0.04  -0.07    -0.02   0.02  -0.05     0.03  -0.08   0.18
  17   1    -0.01   0.08   0.01    -0.04   0.04   0.01     0.10  -0.17  -0.03
  18   1     0.03  -0.09   0.23    -0.02   0.04  -0.11     0.03  -0.09   0.24
  19   1     0.12  -0.22  -0.02    -0.06   0.10   0.01     0.13  -0.22  -0.03
  20   1    -0.03  -0.03  -0.35     0.02   0.03   0.35    -0.00  -0.01  -0.10
  21   1    -0.14  -0.32  -0.06     0.13   0.32   0.06    -0.03  -0.10  -0.02
  22   1    -0.03  -0.00  -0.08     0.00  -0.00   0.03     0.03   0.02   0.27
  23   1    -0.06  -0.07  -0.01     0.01   0.03   0.00     0.09   0.25   0.05
  24   1     0.06   0.07   0.01     0.16   0.37   0.07     0.01   0.02   0.00
  25   1     0.02   0.00   0.09     0.06   0.03   0.40     0.00   0.00   0.02
  26   1     0.01   0.00   0.26     0.02  -0.00   0.24     0.00   0.00   0.10
  27   1     0.10   0.23   0.06     0.11   0.21   0.06     0.04   0.09   0.02
  28   1    -0.02   0.15  -0.29    -0.02   0.10  -0.22     0.00   0.01  -0.01
  29   1    -0.16   0.29   0.05    -0.12   0.22   0.04    -0.00   0.01   0.00
  30   1    -0.02  -0.08   0.10     0.01   0.01  -0.02    -0.02  -0.03   0.03
  31   1     0.11  -0.12  -0.02    -0.12   0.01  -0.00     0.08  -0.04  -0.01
  32   1     0.03   0.01  -0.07    -0.04  -0.03   0.11     0.02   0.00  -0.07
                     64                     65                     66
                        a                      a                      a 
 Frequencies --  1502.4617              1505.2656              1507.7077
 Red. masses --     1.8395                 1.5329                 1.6601
 Frc consts  --     0.0000                 0.0000                 0.0000
 IR Inten    --     0.1392                 2.4631                 1.6736
 Raman Activ --     0.0000                 0.0000                 0.0000
 Depolar     --     0.0000                 0.0000                 0.0000
 Atom AN      X      Y      Z        X      Y      Z        X      Y      Z
   1   6    -0.02   0.00   0.01    -0.05   0.08   0.19     0.06  -0.03   0.04
   2   6    -0.07   0.10  -0.06    -0.01   0.02   0.04     0.04  -0.03   0.02
   3   6     0.06  -0.10   0.06    -0.00   0.01  -0.01    -0.01  -0.00  -0.00
   4   6    -0.02   0.06  -0.03     0.00  -0.00  -0.00     0.00   0.00   0.00
   5   6     0.02  -0.00   0.01    -0.00   0.00  -0.00     0.01   0.02   0.02
   6   6     0.05   0.10   0.12    -0.00  -0.01  -0.01    -0.01  -0.01  -0.02
   7   6    -0.00   0.02   0.02    -0.00  -0.00  -0.00     0.03   0.06   0.07
   8   6     0.01   0.02   0.03    -0.00  -0.00  -0.00    -0.02  -0.05  -0.06
   9   6     0.01  -0.01   0.00    -0.00   0.00  -0.00     0.06  -0.04   0.01
  10   6     0.03  -0.03  -0.02    -0.01   0.00   0.00     0.13  -0.09  -0.04
  11   1     0.02   0.02  -0.05     0.19  -0.28  -0.63    -0.01  -0.12   0.03
  12   1     0.06  -0.00  -0.00     0.46   0.07   0.02    -0.14   0.17   0.03
  13   1    -0.00  -0.00   0.01    -0.42  -0.12  -0.16    -0.09   0.06  -0.20
  14   1     0.07  -0.13   0.32     0.01   0.03  -0.01    -0.02   0.02  -0.08
  15   1     0.18  -0.30  -0.05    -0.01  -0.02   0.01    -0.05   0.06   0.01
  16   1    -0.06   0.14  -0.32     0.02  -0.00   0.03     0.00  -0.00   0.01
  17   1    -0.17   0.30   0.05    -0.00  -0.03  -0.00     0.01  -0.00  -0.00
  18   1     0.00  -0.07   0.15    -0.00  -0.00   0.00     0.00   0.00  -0.00
  19   1     0.07  -0.15  -0.02     0.00   0.01  -0.00    -0.00   0.00   0.00
  20   1    -0.02   0.01  -0.00     0.00  -0.00  -0.00    -0.00  -0.01  -0.08
  21   1    -0.01   0.01   0.00     0.00  -0.00  -0.00    -0.03  -0.07  -0.01
  22   1    -0.04  -0.04  -0.39     0.00   0.00   0.03     0.01   0.01   0.07
  23   1    -0.15  -0.36  -0.07     0.01   0.03   0.01     0.03   0.06   0.01
  24   1    -0.00  -0.03  -0.00     0.00   0.01   0.00    -0.09  -0.22  -0.04
  25   1     0.00  -0.00  -0.03     0.00   0.00   0.01    -0.03  -0.02  -0.24
  26   1    -0.00  -0.00  -0.08     0.00   0.00   0.00     0.01   0.01   0.19
  27   1    -0.03  -0.07  -0.02     0.00   0.00   0.00     0.08   0.17   0.05
  28   1    -0.01   0.00  -0.02     0.00  -0.00   0.00    -0.03   0.01  -0.09
  29   1    -0.01   0.02   0.00     0.00  -0.00  -0.00    -0.06   0.08   0.01
  30   1     0.03   0.05  -0.05    -0.01  -0.01   0.01     0.08   0.19  -0.25
  31   1    -0.13   0.06   0.01     0.02  -0.01  -0.00    -0.48   0.27   0.04
  32   1    -0.04  -0.01   0.11     0.01   0.00  -0.02    -0.14  -0.08   0.37
                     67                     68                     69
                        a                      a                      a 
 Frequencies --  1508.2838              1510.9226              2953.9731
 Red. masses --     1.6594                 1.5630                 1.8838
 Frc consts  --     0.0000                 0.0000                 0.0000
 IR Inten    --     0.5680                 2.1352                 5.1315
 Raman Activ --     0.0000                 0.0000                 0.0000
 Depolar     --     0.0000                 0.0000                 0.0000
 Atom AN      X      Y      Z        X      Y      Z        X      Y      Z
   1   6    -0.15   0.08  -0.08    -0.00   0.00   0.00    -0.00   0.00   0.00
   2   6    -0.08   0.06  -0.05    -0.00   0.00  -0.00     0.01  -0.01  -0.03
   3   6    -0.00   0.05  -0.02    -0.00   0.00  -0.00    -0.02   0.02   0.09
   4   6    -0.01  -0.01   0.00     0.00  -0.00   0.00     0.05  -0.07  -0.09
   5   6     0.00   0.01   0.01     0.00   0.00   0.00     0.06   0.14  -0.09
   6   6    -0.01  -0.03  -0.03    -0.01   0.01  -0.01    -0.02  -0.07   0.10
   7   6     0.01   0.02   0.03     0.01  -0.01   0.01     0.01   0.04  -0.06
   8   6    -0.01  -0.02  -0.03    -0.00  -0.01  -0.00    -0.02  -0.05   0.03
   9   6     0.02  -0.02   0.01    -0.04   0.02  -0.06    -0.00   0.00   0.00
  10   6     0.05  -0.03  -0.01    -0.06   0.00  -0.20     0.00   0.00  -0.00
  11   1     0.04   0.27  -0.11     0.00   0.00  -0.00    -0.00   0.00   0.00
  12   1     0.38  -0.42  -0.07     0.00  -0.00  -0.00     0.00   0.00  -0.01
  13   1     0.20  -0.17   0.50     0.00  -0.00   0.00     0.00  -0.01  -0.00
  14   1     0.04  -0.04   0.13     0.00   0.00   0.00    -0.03   0.05   0.03
  15   1     0.09  -0.10  -0.03     0.00  -0.00  -0.00     0.00  -0.02   0.10
  16   1     0.02  -0.06   0.13    -0.00  -0.00   0.00     0.07  -0.13  -0.06
  17   1     0.06  -0.13  -0.02     0.00  -0.00  -0.00    -0.01   0.04  -0.26
  18   1     0.00   0.01  -0.02     0.00   0.00  -0.00    -0.20   0.31   0.15
  19   1    -0.00   0.02   0.00    -0.00   0.00   0.00     0.00  -0.03   0.16
  20   1     0.00  -0.00  -0.03     0.00  -0.00  -0.00    -0.19  -0.47   0.06
  21   1    -0.01  -0.03  -0.01    -0.00  -0.00  -0.00    -0.00  -0.04   0.28
  22   1     0.01   0.01   0.10     0.02  -0.00   0.02     0.07   0.19  -0.01
  23   1     0.04   0.09   0.02     0.01   0.01   0.00     0.00   0.06  -0.36
  24   1    -0.04  -0.09  -0.02    -0.01  -0.01  -0.00    -0.00  -0.05   0.24
  25   1    -0.01  -0.01  -0.09    -0.05   0.01  -0.02    -0.04  -0.10   0.00
  26   1     0.00   0.00   0.09    -0.00   0.00   0.02     0.07   0.15  -0.01
  27   1     0.03   0.08   0.02     0.02   0.02   0.01     0.01   0.02  -0.11
  28   1    -0.01   0.00  -0.03     0.01  -0.04   0.07     0.01  -0.02  -0.01
  29   1    -0.02   0.03   0.00     0.06  -0.03  -0.02    -0.00  -0.00   0.01
  30   1     0.02   0.07  -0.10     0.46  -0.07   0.49    -0.00   0.00   0.00
  31   1    -0.17   0.10   0.01    -0.09  -0.33  -0.10     0.00  -0.00   0.00
  32   1    -0.05  -0.03   0.13    -0.12   0.39   0.43     0.00  -0.00  -0.00
                     70                     71                     72
                        a                      a                      a 
 Frequencies --  2955.3077              2955.5265              2959.7557
 Red. masses --     1.8947                 1.9223                 1.9245
 Frc consts  --     0.0000                 0.0000                 0.0000
 IR Inten    --     8.0801                20.8811                 1.7776
 Raman Activ --     0.0000                 0.0000                 0.0000
 Depolar     --     0.0000                 0.0000                 0.0000
 Atom AN      X      Y      Z        X      Y      Z        X      Y      Z
   1   6    -0.00   0.00   0.00     0.00  -0.00   0.00    -0.01   0.01   0.01
   2   6     0.01  -0.01  -0.03    -0.00   0.00   0.00     0.06  -0.09  -0.20
   3   6    -0.02   0.03   0.10     0.01  -0.01  -0.02    -0.02   0.02   0.12
   4   6     0.07  -0.09  -0.16    -0.02   0.02   0.07    -0.05   0.06   0.08
   5   6    -0.02  -0.06   0.07     0.04   0.11  -0.10    -0.01  -0.01  -0.02
   6   6     0.01   0.03  -0.04    -0.01  -0.03   0.02     0.00   0.01  -0.03
   7   6    -0.01  -0.04   0.06    -0.02  -0.06   0.09    -0.00  -0.01   0.02
   8   6     0.04   0.09  -0.06     0.06   0.15  -0.11    -0.01  -0.02   0.02
   9   6     0.01  -0.01   0.01     0.01  -0.01   0.02     0.01  -0.01  -0.03
  10   6     0.00  -0.00   0.00     0.00  -0.00   0.00    -0.00   0.00   0.00
  11   1     0.00   0.00   0.00    -0.00   0.00  -0.00     0.00   0.00   0.00
  12   1     0.00   0.00  -0.00     0.00   0.00  -0.00    -0.00   0.01  -0.05
  13   1     0.00  -0.01  -0.00    -0.00   0.00   0.00     0.02  -0.05  -0.02
  14   1    -0.04   0.06   0.03     0.00  -0.00  -0.00    -0.24   0.42   0.22
  15   1     0.00  -0.02   0.10    -0.00   0.00  -0.00     0.02  -0.09   0.49
  16   1     0.09  -0.16  -0.08    -0.02   0.04   0.02     0.08  -0.13  -0.06
  17   1    -0.01   0.05  -0.29     0.00  -0.01   0.04    -0.01   0.06  -0.39
  18   1    -0.24   0.38   0.18     0.06  -0.09  -0.04     0.16  -0.25  -0.13
  19   1    -0.00  -0.06   0.42     0.00   0.03  -0.22    -0.00   0.02  -0.16
  20   1     0.06   0.15  -0.01    -0.14  -0.33   0.03     0.03   0.07  -0.01
  21   1     0.00   0.05  -0.28    -0.00  -0.06   0.34    -0.00  -0.03   0.10
  22   1    -0.04  -0.09   0.01     0.03   0.09  -0.01    -0.01  -0.02  -0.00
  23   1    -0.00  -0.03   0.16     0.00   0.01  -0.08    -0.00  -0.02   0.12
  24   1     0.00   0.04  -0.22     0.00   0.06  -0.30     0.00   0.02  -0.08
  25   1     0.05   0.13  -0.01     0.07   0.19  -0.01     0.00   0.00   0.00
  26   1    -0.13  -0.28   0.01    -0.21  -0.47   0.02     0.02   0.05  -0.00
  27   1    -0.01  -0.04   0.21    -0.02  -0.09   0.40     0.00   0.02  -0.07
  28   1    -0.02   0.03   0.02    -0.02   0.03   0.02    -0.03   0.05   0.03
  29   1     0.00   0.01  -0.05     0.01   0.02  -0.12    -0.01  -0.02   0.09
  30   1     0.00  -0.00  -0.00    -0.00  -0.00  -0.00     0.00  -0.01  -0.00
  31   1    -0.00   0.00  -0.01    -0.00   0.00  -0.01     0.00   0.00  -0.01
  32   1    -0.00   0.00  -0.00    -0.00   0.00  -0.00     0.00  -0.00   0.00
                     73                     74                     75
                        a                      a                      a 
 Frequencies --  2960.6445              2962.9977              2969.3393
 Red. masses --     1.9218                 1.8560                 1.6341
 Frc consts  --     0.0000                 0.0000                 0.0000
 IR Inten    --    17.9584                 6.2182                23.5197
 Raman Activ --     0.0000                 0.0000                 0.0000
 Depolar     --     0.0000                 0.0000                 0.0000
 Atom AN      X      Y      Z        X      Y      Z        X      Y      Z
   1   6    -0.00   0.00   0.00     0.00  -0.00  -0.00     0.00  -0.00  -0.01
   2   6     0.01  -0.02  -0.04    -0.01   0.01   0.02    -0.01   0.02   0.06
   3   6    -0.00   0.01   0.01     0.00  -0.00   0.01    -0.00   0.00   0.05
   4   6    -0.02   0.02   0.01     0.02  -0.03   0.00    -0.02   0.04  -0.05
   5   6    -0.02  -0.05   0.03     0.03   0.07  -0.05    -0.04  -0.07  -0.06
   6   6    -0.01  -0.02   0.05     0.02   0.07  -0.11    -0.00  -0.03   0.12
   7   6     0.01   0.03  -0.08    -0.02  -0.06   0.11     0.00  -0.02   0.11
   8   6     0.01   0.03  -0.07    -0.05  -0.11   0.03    -0.03  -0.06  -0.04
   9   6    -0.09   0.09   0.21    -0.06   0.08   0.09    -0.00   0.01  -0.04
  10   6     0.01  -0.01  -0.01     0.01  -0.00  -0.01     0.00   0.00   0.00
  11   1     0.00   0.00   0.00    -0.00   0.00  -0.00     0.01  -0.00   0.00
  12   1    -0.00   0.00  -0.01     0.00  -0.00   0.01     0.00  -0.00   0.03
  13   1     0.00  -0.01  -0.00    -0.00   0.00   0.00    -0.01   0.01   0.01
  14   1    -0.05   0.08   0.05     0.03  -0.06  -0.03     0.05  -0.09  -0.05
  15   1     0.00  -0.02   0.08    -0.00   0.01  -0.03    -0.00   0.03  -0.15
  16   1     0.01  -0.02  -0.01    -0.00   0.01   0.01     0.01  -0.02  -0.00
  17   1    -0.00   0.01  -0.03    -0.00   0.00  -0.04    -0.00   0.03  -0.19
  18   1     0.06  -0.09  -0.05    -0.07   0.11   0.06     0.09  -0.14  -0.08
  19   1    -0.00   0.00   0.02     0.01   0.00  -0.08    -0.01  -0.02   0.27
  20   1     0.07   0.17  -0.02    -0.10  -0.24   0.03     0.14   0.34  -0.06
  21   1    -0.00   0.01  -0.08     0.00  -0.02   0.13    -0.02  -0.08   0.30
  22   1     0.02   0.05  -0.00    -0.06  -0.17   0.01     0.01   0.01   0.01
  23   1     0.00   0.04  -0.19    -0.00  -0.08   0.41     0.01   0.09  -0.45
  24   1    -0.00  -0.06   0.28     0.01   0.08  -0.41     0.01   0.09  -0.41
  25   1    -0.02  -0.06  -0.00     0.05   0.12  -0.00    -0.01  -0.02   0.02
  26   1    -0.01  -0.02  -0.01     0.18   0.40  -0.03     0.12   0.26  -0.03
  27   1    -0.02  -0.07   0.28    -0.00  -0.00  -0.04    -0.02  -0.06   0.19
  28   1     0.29  -0.45  -0.24     0.22  -0.33  -0.19     0.01  -0.01  -0.01
  29   1     0.03   0.11  -0.51     0.00   0.04  -0.12    -0.01  -0.03   0.15
  30   1    -0.03   0.05   0.03    -0.01   0.03   0.01     0.00  -0.00  -0.00
  31   1    -0.00  -0.01   0.05     0.00  -0.01   0.03     0.00   0.00  -0.01
  32   1    -0.01  -0.00  -0.01    -0.01   0.00  -0.01    -0.01   0.00  -0.00
                     76                     77                     78
                        a                      a                      a 
 Frequencies --  2970.9253              2974.3070              2977.2354
 Red. masses --     1.7931                 1.4961                 1.5545
 Frc consts  --     0.0000                 0.0000                 0.0000
 IR Inten    --    34.6116                 8.5370                 0.0374
 Raman Activ --     0.0000                 0.0000                 0.0000
 Depolar     --     0.0000                 0.0000                 0.0000
 Atom AN      X      Y      Z        X      Y      Z        X      Y      Z
   1   6    -0.00   0.01   0.02     0.01  -0.00   0.00     0.01  -0.00  -0.00
   2   6     0.04  -0.07  -0.12    -0.04   0.08  -0.04    -0.03   0.06  -0.01
   3   6     0.00   0.01  -0.17    -0.01   0.00   0.02     0.01  -0.03   0.05
   4   6     0.04  -0.06  -0.01     0.05  -0.10   0.08    -0.01   0.02   0.05
   5   6    -0.00  -0.01   0.05    -0.03  -0.08  -0.06     0.02   0.04   0.10
   6   6    -0.00  -0.02   0.08     0.01   0.02  -0.01     0.00   0.01   0.01
   7   6    -0.00  -0.02   0.06     0.01   0.03  -0.02     0.01   0.01  -0.02
   8   6    -0.02  -0.04  -0.03     0.00   0.01  -0.01    -0.03  -0.05  -0.13
   9   6     0.00   0.00  -0.03     0.01  -0.02   0.01     0.03  -0.06  -0.03
  10   6     0.00   0.00   0.00    -0.00   0.00  -0.00    -0.01   0.00   0.01
  11   1    -0.01   0.00   0.00    -0.02   0.00  -0.01    -0.02   0.00  -0.01
  12   1    -0.00   0.01  -0.06     0.00   0.00  -0.02     0.00  -0.00   0.00
  13   1     0.02  -0.04  -0.02    -0.01   0.02   0.01    -0.01   0.02   0.01
  14   1    -0.18   0.30   0.17     0.15  -0.26  -0.16     0.12  -0.21  -0.13
  15   1     0.01  -0.05   0.26    -0.00  -0.03   0.31    -0.00  -0.02   0.19
  16   1    -0.00   0.01  -0.02     0.01  -0.03  -0.01    -0.04   0.08   0.05
  17   1     0.01  -0.08   0.61    -0.00   0.01  -0.06    -0.00   0.03  -0.22
  18   1    -0.14   0.22   0.11    -0.21   0.33   0.19     0.05  -0.09  -0.04
  19   1     0.01   0.00  -0.09     0.02   0.04  -0.50     0.00   0.02  -0.13
  20   1     0.00   0.01   0.01     0.15   0.37  -0.06    -0.09  -0.23   0.05
  21   1     0.01   0.04  -0.17    -0.01  -0.08   0.30     0.02   0.09  -0.40
  22   1     0.01   0.02   0.01    -0.03  -0.09   0.01    -0.01  -0.04   0.01
  23   1     0.00   0.06  -0.28     0.00   0.00  -0.00     0.00   0.01  -0.03
  24   1     0.00   0.05  -0.22     0.00  -0.01   0.05    -0.00  -0.01   0.07
  25   1     0.01   0.01   0.01    -0.04  -0.11   0.01    -0.02  -0.04   0.00
  26   1     0.08   0.18  -0.02    -0.01  -0.01   0.00     0.15   0.33  -0.05
  27   1    -0.01  -0.05   0.15    -0.00  -0.01   0.02    -0.05  -0.15   0.52
  28   1    -0.00   0.00  -0.00    -0.04   0.06   0.04    -0.14   0.21   0.12
  29   1    -0.01  -0.02   0.10     0.01   0.01  -0.08     0.00  -0.01  -0.01
  30   1     0.00  -0.00  -0.00     0.00  -0.00  -0.00     0.01  -0.02  -0.01
  31   1     0.00   0.00  -0.01    -0.00  -0.00   0.01    -0.00   0.01  -0.02
  32   1    -0.00   0.00  -0.00     0.00  -0.00   0.00     0.01  -0.00   0.01
                     79                     80                     81
                        a                      a                      a 
 Frequencies --  2978.1827              2980.1959              2982.1724
 Red. masses --     1.5335                 1.6413                 1.6590
 Frc consts  --     0.0000                 0.0000                 0.0000
 IR Inten    --    42.2268                 2.2443                83.0518
 Raman Activ --     0.0000                 0.0000                 0.0000
 Depolar     --     0.0000                 0.0000                 0.0000
 Atom AN      X      Y      Z        X      Y      Z        X      Y      Z
   1   6    -0.01   0.00  -0.00     0.01   0.00   0.01    -0.01   0.01   0.00
   2   6     0.04  -0.08   0.05    -0.02   0.05  -0.09     0.03  -0.05   0.01
   3   6    -0.01   0.02  -0.01     0.04  -0.08  -0.07     0.03  -0.05  -0.02
   4   6     0.01  -0.01  -0.03    -0.01   0.03  -0.08     0.01  -0.02  -0.02
   5   6    -0.00   0.00  -0.06     0.01   0.02  -0.02     0.00   0.01  -0.06
   6   6     0.01   0.04  -0.05     0.03   0.06   0.03     0.05   0.14  -0.03
   7   6     0.01   0.04  -0.02    -0.02  -0.06   0.02    -0.02  -0.03  -0.09
   8   6    -0.02  -0.04  -0.03    -0.00  -0.02   0.07     0.00   0.02  -0.08
   9   6     0.05  -0.12   0.08     0.01  -0.05   0.07    -0.01   0.04  -0.08
  10   6    -0.01   0.01  -0.01    -0.01   0.01  -0.01     0.01  -0.00   0.02
  11   1     0.02  -0.00   0.01    -0.03   0.00  -0.01     0.02  -0.00   0.01
  12   1    -0.00  -0.00   0.02     0.00   0.01  -0.05    -0.00  -0.00   0.01
  13   1     0.01  -0.02  -0.01     0.01  -0.01  -0.00     0.01  -0.03  -0.01
  14   1    -0.14   0.24   0.16     0.08  -0.14  -0.10    -0.09   0.15   0.10
  15   1     0.00   0.04  -0.33     0.00  -0.05   0.43     0.00   0.01  -0.12
  16   1     0.04  -0.07  -0.04    -0.17   0.30   0.17    -0.10   0.18   0.11
  17   1    -0.00  -0.01   0.08     0.01  -0.02   0.08     0.00  -0.00  -0.03
  18   1    -0.03   0.05   0.02     0.05  -0.08  -0.06    -0.05   0.07   0.04
  19   1    -0.00  -0.01   0.06    -0.02  -0.03   0.33     0.00  -0.01   0.04
  20   1     0.02   0.05  -0.02    -0.02  -0.05   0.01     0.00   0.02  -0.01
  21   1    -0.01  -0.05   0.24    -0.00  -0.01   0.07    -0.01  -0.05   0.23
  22   1    -0.04  -0.11   0.01    -0.10  -0.27   0.05    -0.20  -0.52   0.08
  23   1    -0.00  -0.03   0.17     0.01   0.04  -0.16     0.01   0.02   0.00
  24   1     0.00  -0.01   0.06    -0.00  -0.00  -0.03    -0.01  -0.09   0.38
  25   1    -0.05  -0.14   0.02     0.09   0.23  -0.03     0.09   0.23  -0.05
  26   1     0.09   0.19  -0.02    -0.00  -0.01   0.01     0.01   0.02  -0.01
  27   1    -0.01  -0.04   0.14     0.02   0.07  -0.27    -0.02  -0.07   0.27
  28   1    -0.24   0.36   0.23    -0.09   0.13   0.09     0.06  -0.08  -0.06
  29   1     0.05   0.08  -0.52     0.03   0.06  -0.35    -0.03  -0.06   0.36
  30   1     0.01  -0.02  -0.02     0.01  -0.01  -0.01     0.01  -0.01  -0.00
  31   1    -0.01  -0.01   0.04    -0.00  -0.01   0.05     0.00   0.01  -0.06
  32   1     0.04  -0.01   0.02     0.03  -0.00   0.01    -0.03   0.00  -0.01
                     82                     83                     84
                        a                      a                      a 
 Frequencies --  2984.4270              2989.2644              2995.7806
 Red. masses --     1.7361                 1.5654                 1.6496
 Frc consts  --     0.0000                 0.0000                 0.0000
 IR Inten    --   190.0384                75.6692               170.2016
 Raman Activ --     0.0000                 0.0000                 0.0000
 Depolar     --     0.0000                 0.0000                 0.0000
 Atom AN      X      Y      Z        X      Y      Z        X      Y      Z
   1   6    -0.00  -0.00  -0.02    -0.02   0.02  -0.01    -0.02   0.01   0.00
   2   6     0.01  -0.02   0.06     0.03  -0.06   0.02     0.02  -0.03  -0.01
   3   6    -0.02   0.03   0.08     0.07  -0.14   0.00     0.05  -0.10  -0.03
   4   6     0.00  -0.02   0.10     0.02  -0.04   0.03     0.02  -0.03  -0.01
   5   6    -0.00  -0.01   0.08     0.00  -0.00   0.04    -0.02  -0.05  -0.01
   6   6     0.01   0.02   0.09     0.01   0.02   0.04    -0.06  -0.14  -0.02
   7   6    -0.05  -0.13   0.04     0.04   0.09   0.04    -0.04  -0.11  -0.01
   8   6    -0.01  -0.03   0.06     0.01   0.03   0.03    -0.02  -0.04  -0.01
   9   6     0.00  -0.02   0.04    -0.01   0.01   0.02     0.01  -0.01  -0.01
  10   6    -0.01   0.01  -0.01     0.01  -0.01  -0.01    -0.01   0.01   0.01
  11   1     0.02  -0.00   0.01     0.05  -0.00   0.02     0.03  -0.00   0.01
  12   1    -0.00  -0.01   0.05    -0.00  -0.00   0.04    -0.00   0.00   0.01
  13   1    -0.01   0.01   0.00     0.03  -0.05  -0.03     0.03  -0.05  -0.03
  14   1    -0.03   0.06   0.04    -0.10   0.17   0.11    -0.05   0.09   0.06
  15   1    -0.00   0.04  -0.28     0.00   0.02  -0.17     0.00   0.00  -0.03
  16   1     0.09  -0.16  -0.08    -0.27   0.47   0.28    -0.19   0.34   0.20
  17   1    -0.00   0.03  -0.19     0.01   0.02  -0.29     0.01   0.00  -0.11
  18   1    -0.02   0.04   0.03    -0.08   0.12   0.07    -0.07   0.11   0.06
  19   1     0.01   0.04  -0.38     0.01   0.01  -0.18     0.00  -0.00  -0.01
  20   1    -0.00   0.00   0.01    -0.01  -0.04   0.01     0.07   0.18  -0.03
  21   1     0.01   0.06  -0.26     0.01   0.04  -0.17    -0.01  -0.02   0.07
  22   1    -0.06  -0.17   0.04    -0.04  -0.09   0.02     0.21   0.56  -0.10
  23   1     0.01   0.08  -0.36     0.00   0.03  -0.14    -0.01  -0.06   0.17
  24   1    -0.01  -0.01  -0.04     0.01   0.06  -0.22    -0.01  -0.04   0.11
  25   1     0.19   0.49  -0.07    -0.15  -0.40   0.07     0.16   0.42  -0.07
  26   1     0.02   0.03   0.01    -0.05  -0.12   0.01     0.06   0.15  -0.01
  27   1     0.02   0.06  -0.23     0.01   0.04  -0.11    -0.01  -0.02   0.06
  28   1    -0.03   0.04   0.03     0.02  -0.04  -0.02    -0.02   0.03   0.02
  29   1     0.01   0.03  -0.16     0.00   0.01  -0.04     0.00  -0.00  -0.00
  30   1     0.01  -0.02  -0.02    -0.02   0.03   0.02     0.02  -0.03  -0.02
  31   1    -0.00  -0.01   0.04     0.00  -0.01   0.02    -0.00   0.00  -0.00
  32   1     0.02  -0.00   0.01    -0.01  -0.00  -0.00     0.01  -0.00   0.01
                     85                     86                     87
                        a                      a                      a 
 Frequencies --  3028.9822              3030.5889              3031.6804
 Red. masses --     1.9581                 1.9245                 1.9018
 Frc consts  --     0.0000                 0.0000                 0.0000
 IR Inten    --    61.0277                59.2049                66.3008
 Raman Activ --     0.0000                 0.0000                 0.0000
 Depolar     --     0.0000                 0.0000                 0.0000
 Atom AN      X      Y      Z        X      Y      Z        X      Y      Z
   1   6     0.09  -0.12  -0.25    -0.01   0.01   0.00     0.21  -0.13   0.14
   2   6     0.01  -0.02  -0.04    -0.00   0.00   0.00     0.01  -0.02   0.02
   3   6     0.01  -0.01  -0.01    -0.00   0.00   0.00     0.01  -0.01   0.01
   4   6     0.00  -0.00  -0.00    -0.00   0.00   0.00     0.00  -0.00   0.00
   5   6    -0.00  -0.00  -0.00    -0.00  -0.00   0.00    -0.00  -0.00   0.00
   6   6    -0.00  -0.00  -0.00    -0.00  -0.00   0.00    -0.00  -0.00   0.00
   7   6    -0.00  -0.00  -0.00    -0.00  -0.00   0.01    -0.00  -0.00   0.00
   8   6    -0.00  -0.00  -0.00    -0.00  -0.01   0.01    -0.00  -0.00   0.00
   9   6     0.00  -0.00   0.00     0.00  -0.01   0.03     0.00  -0.00   0.00
  10   6     0.00  -0.00   0.01     0.12  -0.07   0.25     0.01  -0.00   0.01
  11   1    -0.01  -0.02  -0.04     0.02  -0.00   0.01    -0.58   0.03  -0.19
  12   1     0.02  -0.11   0.63    -0.00   0.00   0.00     0.03   0.06  -0.54
  13   1    -0.31   0.55   0.29     0.02  -0.03  -0.02    -0.19   0.37   0.24
  14   1    -0.04   0.07   0.04     0.00  -0.00  -0.00    -0.03   0.06   0.04
  15   1     0.00  -0.01   0.08    -0.00   0.00  -0.00    -0.00   0.01  -0.08
  16   1    -0.02   0.03   0.02     0.00  -0.00  -0.00    -0.03   0.05   0.03
  17   1     0.00  -0.00   0.03    -0.00   0.00  -0.00    -0.00   0.00  -0.05
  18   1    -0.01   0.01   0.00     0.00  -0.00  -0.00    -0.01   0.01   0.01
  19   1    -0.00  -0.00   0.01    -0.00   0.00  -0.00     0.00   0.00  -0.01
  20   1     0.00   0.00  -0.00     0.00   0.00  -0.00     0.00   0.01  -0.00
  21   1    -0.00  -0.00   0.01     0.00   0.00  -0.00    -0.00   0.00  -0.01
  22   1     0.00   0.01  -0.00     0.00   0.00  -0.00     0.00   0.01  -0.00
  23   1    -0.00  -0.00   0.01    -0.00   0.00  -0.01    -0.00   0.00  -0.00
  24   1     0.00  -0.00   0.00     0.00   0.00  -0.02    -0.00   0.00  -0.00
  25   1     0.00   0.00  -0.00     0.00   0.01  -0.00     0.00   0.01  -0.00
  26   1     0.00   0.00  -0.00     0.01   0.01   0.00     0.00   0.00  -0.00
  27   1    -0.00  -0.00   0.00     0.00   0.01  -0.05     0.00   0.00  -0.00
  28   1    -0.00   0.00   0.00    -0.01   0.02   0.01    -0.00   0.00   0.00
  29   1     0.00   0.00  -0.00     0.01   0.02  -0.11     0.00   0.00  -0.00
  30   1     0.00  -0.00  -0.00     0.01   0.00   0.05    -0.00   0.00   0.00
  31   1     0.00   0.01  -0.02     0.05   0.17  -0.78     0.00   0.00  -0.01
  32   1    -0.01   0.00  -0.00    -0.48   0.06  -0.15    -0.04   0.00  -0.01
                     88                     89                     90
                        a                      a                      a 
 Frequencies --  3033.7990              3037.5030              3046.5935
 Red. masses --     1.7140                 1.2896                 1.5096
 Frc consts  --     0.0000                 0.0000                 0.0000
 IR Inten    --    49.2647                31.6264                37.2132
 Raman Activ --     0.0000                 0.0000                 0.0000
 Depolar     --     0.0000                 0.0000                 0.0000
 Atom AN      X      Y      Z        X      Y      Z        X      Y      Z
   1   6     0.00  -0.01   0.00     0.13   0.09  -0.00     0.00  -0.00  -0.00
   2   6     0.00  -0.00   0.00     0.00   0.00  -0.00     0.00  -0.00  -0.00
   3   6     0.00  -0.00   0.00    -0.00   0.00  -0.00     0.00  -0.00  -0.00
   4   6     0.00  -0.00   0.00     0.00  -0.00   0.00     0.00  -0.00  -0.00
   5   6     0.00   0.00   0.00    -0.00  -0.00  -0.00    -0.00  -0.00  -0.00
   6   6     0.00   0.00   0.00     0.00   0.00   0.00    -0.00  -0.00   0.00
   7   6     0.00   0.01   0.00    -0.00  -0.00  -0.00    -0.00  -0.01  -0.00
   8   6     0.00   0.00   0.00     0.00   0.00   0.00    -0.00  -0.00   0.00
   9   6    -0.02   0.01   0.02    -0.00   0.00   0.00     0.01  -0.02  -0.01
  10   6    -0.23   0.06   0.10    -0.01   0.00   0.00     0.04  -0.18  -0.11
  11   1     0.00  -0.00   0.00    -0.70   0.07  -0.24    -0.00   0.00  -0.00
  12   1     0.00   0.00  -0.03     0.02  -0.06   0.46     0.00  -0.00   0.00
  13   1    -0.01   0.02   0.01     0.21  -0.34  -0.20    -0.00   0.00   0.00
  14   1    -0.00   0.00   0.00     0.00  -0.00  -0.00    -0.00   0.00   0.00
  15   1    -0.00   0.00  -0.00     0.00   0.00   0.00     0.00   0.00  -0.00
  16   1    -0.00   0.00   0.00     0.00  -0.01  -0.01    -0.00   0.00   0.00
  17   1    -0.00   0.00  -0.00    -0.00  -0.00   0.01     0.00  -0.00   0.00
  18   1    -0.00   0.00   0.00    -0.00   0.00   0.00    -0.00   0.00   0.00
  19   1     0.00   0.00  -0.00    -0.00  -0.00  -0.00     0.00  -0.00  -0.00
  20   1    -0.00  -0.00   0.00     0.00   0.00  -0.00     0.00   0.01  -0.00
  21   1     0.00   0.00  -0.00    -0.00  -0.00   0.00    -0.00  -0.00   0.00
  22   1    -0.00  -0.00   0.00    -0.00  -0.00   0.00     0.00   0.01  -0.00
  23   1     0.00   0.00  -0.00    -0.00   0.00  -0.00    -0.00  -0.00  -0.00
  24   1     0.00   0.00  -0.01    -0.00  -0.00   0.00    -0.00  -0.00   0.01
  25   1    -0.01  -0.03   0.00     0.00   0.00  -0.00     0.02   0.05  -0.01
  26   1    -0.00  -0.01   0.00    -0.00  -0.00   0.00     0.01   0.02  -0.00
  27   1     0.00   0.00  -0.01     0.00   0.00  -0.00    -0.00  -0.00   0.00
  28   1     0.04  -0.05  -0.03     0.00  -0.00  -0.00    -0.03   0.04   0.03
  29   1     0.00   0.00  -0.02    -0.00  -0.00   0.00    -0.00  -0.00   0.01
  30   1     0.10  -0.22  -0.14     0.00  -0.01  -0.01    -0.41   0.69   0.45
  31   1    -0.01   0.12  -0.49    -0.00   0.00  -0.01     0.01   0.01  -0.16
  32   1     0.71  -0.09   0.29     0.02  -0.00   0.01     0.26  -0.06   0.08
