      -----------------------------------------------------------      
     |                   =====================                   |     
     |                           x T B                           |     
     |                   =====================                   |     
     |                         S. Grimme                         |     
     |          Mulliken Center for Theoretical Chemistry        |     
     |                    University of Bonn                     |     
      -----------------------------------------------------------      

   * xtb version 6.6.1 (8d0f1dd) compiled by 'stahn@M-Bot' on 2023-08-01

   xtb is free software: you can redistribute it and/or modify it under
   the terms of the GNU Lesser General Public License as published by
   the Free Software Foundation, either version 3 of the License, or
   (at your option) any later version.
   
   xtb is distributed in the hope that it will be useful,
   but WITHOUT ANY WARRANTY; without even the implied warranty of
   MERCHANTABILITY or FITNESS FOR A PARTICULAR PURPOSE.  See the
   GNU Lesser General Public License for more details.
   
   Cite this work as:
   * C. Bannwarth, E. Caldeweyher, S. Ehlert, A. Hansen, P. Pracht,
     J. Seibert, S. Spicher, S. Grimme, WIREs Comput. Mol. Sci., 2020, 11,
     e01493. DOI: 10.1002/wcms.1493
   
   for GFN2-xTB:
   * C. Bannwarth, S. Ehlert and S. Grimme., J. Chem. Theory Comput., 2019,
     15, 1652-1671. DOI: 10.1021/acs.jctc.8b01176
   for GFN1-xTB:
   * S. Grimme, C. Bannwarth, P. Shushkov, J. Chem. Theory Comput., 2017,
     13, 1989-2009. DOI: 10.1021/acs.jctc.7b00118
   for GFN0-xTB:
   * P. Pracht, E. Caldeweyher, S. Ehlert, S. Grimme, ChemRxiv, 2019, preprint.
     DOI: 10.26434/chemrxiv.8326202.v1
   for GFN-FF:
   * S. Spicher and S. Grimme, Angew. Chem. Int. Ed., 2020, 59, 15665-15673.
     DOI: 10.1002/anie.202004239
   
   for ALPB and GBSA implicit solvation:
   * S. Ehlert, M. Stahn, S. Spicher, S. Grimme, J. Chem. Theory Comput.,
     2021, 17, 4250-4261. DOI: 10.1021/acs.jctc.1c00471
   
   for DFT-D4:
   * E. Caldeweyher, C. Bannwarth and S. Grimme, J. Chem. Phys., 2017,
     147, 034112. DOI: 10.1063/1.4993215
   * E. Caldeweyher, S. Ehlert, A. Hansen, H. Neugebauer, S. Spicher,
     C. Bannwarth and S. Grimme, J. Chem. Phys., 2019, 150, 154122.
     DOI: 10.1063/1.5090222
   * E. Caldeweyher, J.-M. Mewes, S. Ehlert and S. Grimme, Phys. Chem. Chem. Phys.
     2020, 22, 8499-8512. DOI: 10.1039/D0CP00502A
   
   for sTDA-xTB:
   * S. Grimme and C. Bannwarth, J. Chem. Phys., 2016, 145, 054103.
     DOI: 10.1063/1.4959605
   
   in the mass-spec context:
   * V. Asgeirsson, C. Bauer and S. Grimme, Chem. Sci., 2017, 8, 4879.
     DOI: 10.1039/c7sc00601b
   * J. Koopman and S. Grimme, ACS Omega 2019, 4, 12, 15120-15133.
     DOI: 10.1021/acsomega.9b02011
   
   for metadynamics refer to:
   * S. Grimme, J. Chem. Theory Comput., 2019, 155, 2847-2862
     DOI: 10.1021/acs.jctc.9b00143
   
   for SPH calculations refer to:
   * S. Spicher and S. Grimme, J. Chem. Theory Comput., 2021, 17, 1701-1714
     DOI: 10.1021/acs.jctc.0c01306
   
   with help from (in alphabetical order)
   P. Atkinson, C. Bannwarth, F. Bohle, G. Brandenburg, E. Caldeweyher
   M. Checinski, S. Dohm, S. Ehlert, S. Ehrlich, I. Gerasimov, C. Hölzer
   A. Katbashev, J. Koopman, C. Lavigne, S. Lehtola, F. März, M. Müller,
   F. Musil, H. Neugebauer, J. Pisarek, C. Plett, P. Pracht, F. Pultar,
   J. Seibert, P. Shushkov, S. Spicher, M. Stahn, M. Steiner, T. Strunk,
   J. Stückrath, T. Rose, and J. Unsleber
   
 * started run on 2024/04/23 at 12:10:23.732     

           -------------------------------------------------
          |                Calculation Setup                |
           -------------------------------------------------

          program call               : xtb folded.xyz --gfn 2 --ohess -P 4
          coordinate file            : folded.xyz
          omp threads                :                     4

   ID    Z sym.   atoms
    1    6 C      1-10
    2    1 H      11-32

           -------------------------------------------------
          |                 G F N 2 - x T B                 |
           -------------------------------------------------

        Reference                      10.1021/acs.jctc.8b01176
      * Hamiltonian:
        H0-scaling (s, p, d)           1.850000    2.230000    2.230000
        zeta-weighting                 0.500000
      * Dispersion:
        s8                             2.700000
        a1                             0.520000
        a2                             5.000000
        s9                             5.000000
      * Repulsion:
        kExp                           1.500000    1.000000
        rExp                           1.000000
      * Coulomb:
        alpha                          2.000000
        third order                    shell-resolved
        anisotropic                    true
        a3                             3.000000
        a5                             4.000000
        cn-shift                       1.200000
        cn-exp                         4.000000
        max-rad                        5.000000


          ...................................................
          :                      SETUP                      :
          :.................................................:
          :  # basis functions                  62          :
          :  # atomic orbitals                  62          :
          :  # shells                           42          :
          :  # electrons                        62          :
          :  max. iterations                   250          :
          :  Hamiltonian                  GFN2-xTB          :
          :  restarted?                      false          :
          :  GBSA solvation                  false          :
          :  PC potential                    false          :
          :  electronic temp.          300.0000000     K    :
          :  accuracy                    1.0000000          :
          :  -> integral cutoff          0.2500000E+02      :
          :  -> integral neglect         0.1000000E-07      :
          :  -> SCF convergence          0.1000000E-05 Eh   :
          :  -> wf. convergence          0.1000000E-03 e    :
          :  Broyden damping             0.4000000          :
          ...................................................

 iter      E             dE          RMSdq      gap      omega  full diag
   1    -33.0368925 -0.330369E+02  0.251E+00   12.51       0.0  T
   2    -33.1225661 -0.856736E-01  0.133E+00   12.32       1.0  T
   3    -33.1235912 -0.102506E-02  0.713E-01   12.31       1.0  T
   4    -33.1238380 -0.246852E-03  0.846E-02   12.34       1.0  T
   5    -33.1238433 -0.531160E-05  0.418E-02   12.34       1.0  T
   6    -33.1238454 -0.202878E-05  0.264E-03   12.34       6.7  T
   7    -33.1238454 -0.318347E-07  0.115E-03   12.34      15.3  T
   8    -33.1238454 -0.403592E-08  0.250E-04   12.34      70.8  T
   9    -33.1238454 -0.208004E-09  0.951E-05   12.34     185.9  T

   *** convergence criteria satisfied after 9 iterations ***

         #    Occupation            Energy/Eh            Energy/eV
      -------------------------------------------------------------
         1        2.0000           -0.6215848             -16.9142
       ...           ...                  ...                  ...
        25        2.0000           -0.4314964             -11.7416
        26        2.0000           -0.4266589             -11.6100
        27        2.0000           -0.4230359             -11.5114
        28        2.0000           -0.4199826             -11.4283
        29        2.0000           -0.4168669             -11.3435
        30        2.0000           -0.4149629             -11.2917
        31        2.0000           -0.4087135             -11.1217 (HOMO)
        32                          0.0446701               1.2155 (LUMO)
        33                          0.0665547               1.8110
        34                          0.0933711               2.5408
        35                          0.1045520               2.8450
        36                          0.1109696               3.0196
       ...                                ...                  ...
        62                          0.3096554               8.4262
      -------------------------------------------------------------
                  HL-Gap            0.4533837 Eh           12.3372 eV
             Fermi-level           -0.1820217 Eh           -4.9531 eV

 SCC (total)                   0 d,  0 h,  0 min,  0.059 sec
 SCC setup                      ...        0 min,  0.006 sec (  9.862%)
 Dispersion                     ...        0 min,  0.001 sec (  1.493%)
 classical contributions        ...        0 min,  0.000 sec (  0.174%)
 integral evaluation            ...        0 min,  0.004 sec (  6.592%)
 iterations                     ...        0 min,  0.034 sec ( 57.818%)
 molecular gradient             ...        0 min,  0.013 sec ( 22.318%)
 printout                       ...        0 min,  0.001 sec (  1.539%)

         :::::::::::::::::::::::::::::::::::::::::::::::::::::
         ::                     SUMMARY                     ::
         :::::::::::::::::::::::::::::::::::::::::::::::::::::
         :: total energy             -32.647468539146 Eh    ::
         :: gradient norm              0.028874978964 Eh/a0 ::
         :: HOMO-LUMO gap             12.337198244025 eV    ::
         ::.................................................::
         :: SCC energy               -33.123845387680 Eh    ::
         :: -> isotropic ES            0.005378848903 Eh    ::
         :: -> anisotropic ES          0.011109211419 Eh    ::
         :: -> anisotropic XC          0.019723415273 Eh    ::
         :: -> dispersion             -0.019900301248 Eh    ::
         :: repulsion energy           0.476447371623 Eh    ::
         :: add. restraining           0.000000000000 Eh    ::
         :: total charge              -0.000000000000 e     ::
         :::::::::::::::::::::::::::::::::::::::::::::::::::::

      ----------------------------------------------------------- 
     |                   =====================                   |
     |                        A N C O P T                        |
     |                   =====================                   |
     |               Approximate Normal Coordinate               |
     |                Rational Function Optimizer                |
      ----------------------------------------------------------- 

          ...................................................
          :                      SETUP                      :
          :.................................................:
          :   optimization level            normal          :
          :   max. optcycles                   200          :
          :   ANC micro-cycles                  20          :
          :   degrees of freedom                90          :
          :.................................................:
          :   RF solver                   davidson          :
          :   write xtbopt.log                true          :
          :   linear?                        false          :
          :   energy convergence         0.5000000E-05 Eh   :
          :   grad. convergence          0.1000000E-02 Eh/α :
          :   maxmium RF displ.          2.0000000          :
          :   Hlow (freq-cutoff)         0.2000000E-01      :
          :   Hmax (freq-cutoff)         5.0000000          :
          :   S6 in model hess.         70.0000000          :
          ...................................................

generating ANC from model Hessian ...
Using Lindh-Hessian (1995)
 Shifting diagonal of input Hessian by   1.917106273699335E-002
 Lowest  eigenvalues of input Hessian
    0.000000    0.000000    0.000000    0.000000    0.000000    0.000000
    0.020000    0.020244    0.022188    0.022985    0.023354    0.024445
    0.025376    0.026609    0.028084    0.030306    0.032809    0.033636
 Highest eigenvalues
    1.214861    1.226166    1.245463    1.274156    1.302185    1.326329
 

........................................................................
.............................. CYCLE    1 ..............................
........................................................................

 iter      E             dE          RMSdq      gap      omega  full diag
   1    -33.1238454 -0.331238E+02  0.165E-05   12.34       0.0  T
   2    -33.1238454 -0.217426E-11  0.854E-06   12.34    2069.3  T
   3    -33.1238454 -0.135003E-12  0.463E-06   12.34    3820.5  T
     SCC iter.                  ...        0 min,  0.003 sec
     gradient                   ...        0 min,  0.004 sec
 * total energy  :   -32.6474685 Eh     change       -0.9549694E-11 Eh
   gradient norm :     0.0288747 Eh/α   predicted     0.0000000E+00 (-100.00%)
   displ. norm   :     0.1713702 α      lambda       -0.2809002E-02
   maximum displ.:     0.0719438 α      in ANC's #38, #40, #11, ...

........................................................................
.............................. CYCLE    2 ..............................
........................................................................

 iter      E             dE          RMSdq      gap      omega  full diag
   1    -33.1331249 -0.331331E+02  0.134E-01   12.48       0.0  T
   2    -33.1331291 -0.419199E-05  0.770E-02   12.48       1.0  T
   3    -33.1331297 -0.662545E-06  0.391E-03   12.48       4.5  T
   4    -33.1331298 -0.685512E-07  0.126E-03   12.48      14.0  T
   5    -33.1331298 -0.279822E-08  0.681E-04   12.48      26.0  T
   6    -33.1331298 -0.340059E-09  0.514E-05   12.48     343.7  T
     SCC iter.                  ...        0 min,  0.004 sec
     gradient                   ...        0 min,  0.003 sec
 * total energy  :   -32.6493170 Eh     change       -0.1848499E-02 Eh
   gradient norm :     0.0127631 Eh/α   predicted    -0.1445754E-02 ( -21.79%)
   displ. norm   :     0.0927216 α      lambda       -0.5192013E-03
   maximum displ.:     0.0476844 α      in ANC's #11, #38, #40, ...

........................................................................
.............................. CYCLE    3 ..............................
........................................................................

 iter      E             dE          RMSdq      gap      omega  full diag
   1    -33.1394564 -0.331395E+02  0.631E-02   12.56       0.0  T
   2    -33.1394590 -0.263824E-05  0.356E-02   12.56       1.0  T
   3    -33.1394591 -0.115281E-06  0.395E-03   12.56       4.5  T
   4    -33.1394592 -0.329450E-07  0.667E-04   12.56      26.5  T
   5    -33.1394592 -0.223402E-08  0.374E-04   12.56      47.3  T
     SCC iter.                  ...        0 min,  0.003 sec
     gradient                   ...        0 min,  0.003 sec
 * total energy  :   -32.6495989 Eh     change       -0.2818826E-03 Eh
   gradient norm :     0.0021627 Eh/α   predicted    -0.2618474E-03 (  -7.11%)
   displ. norm   :     0.0258801 α      lambda       -0.2082760E-04
   maximum displ.:     0.0182460 α      in ANC's #11, #10, #9, ...

........................................................................
.............................. CYCLE    4 ..............................
........................................................................

 iter      E             dE          RMSdq      gap      omega  full diag
   1    -33.1404356 -0.331404E+02  0.852E-03   12.58       0.0  T
   2    -33.1404357 -0.846104E-07  0.482E-03   12.58       3.7  T
   3    -33.1404357 -0.236758E-08  0.777E-04   12.58      22.7  T
   4    -33.1404357 -0.853539E-09  0.140E-04   12.58     126.7  T
     SCC iter.                  ...        0 min,  0.002 sec
     gradient                   ...        0 min,  0.003 sec
 * total energy  :   -32.6496159 Eh     change       -0.1695636E-04 Eh
   gradient norm :     0.0007536 Eh/α   predicted    -0.1144746E-04 ( -32.49%)
   displ. norm   :     0.0622859 α      lambda       -0.2041387E-04
   maximum displ.:     0.0404531 α      in ANC's #11, #10, #3, ...

........................................................................
.............................. CYCLE    5 ..............................
........................................................................

 iter      E             dE          RMSdq      gap      omega  full diag
   1    -33.1413124 -0.331413E+02  0.146E-02   12.60       0.0  T
   2    -33.1413125 -0.813459E-07  0.851E-03   12.60       2.1  T
   3    -33.1413125 -0.950782E-08  0.643E-04   12.60      27.5  T
   4    -33.1413125 -0.190364E-08  0.251E-04   12.60      70.6  T
     SCC iter.                  ...        0 min,  0.002 sec
     gradient                   ...        0 min,  0.003 sec
 * total energy  :   -32.6496314 Eh     change       -0.1555740E-04 Eh
   gradient norm :     0.0020309 Eh/α   predicted    -0.1022472E-04 ( -34.28%)
   displ. norm   :     0.0193689 α      lambda       -0.7430384E-05
   maximum displ.:     0.0120234 α      in ANC's #3, #10, #11, ...

........................................................................
.............................. CYCLE    6 ..............................
........................................................................

 iter      E             dE          RMSdq      gap      omega  full diag
   1    -33.1410509 -0.331411E+02  0.322E-03   12.61       0.0  T
   2    -33.1410509 -0.118836E-07  0.189E-03   12.61       9.4  T
   3    -33.1410509 -0.262865E-09  0.269E-04   12.61      65.7  T
   4    -33.1410509 -0.908358E-10  0.462E-05   12.61     382.6  T
     SCC iter.                  ...        0 min,  0.013 sec
     gradient                   ...        0 min,  0.003 sec
 * total energy  :   -32.6496381 Eh     change       -0.6647045E-05 Eh
   gradient norm :     0.0013102 Eh/α   predicted    -0.3724637E-05 ( -43.97%)
   displ. norm   :     0.1353935 α      lambda       -0.2677473E-04
   maximum displ.:     0.0865251 α      in ANC's #3, #10, #11, ...

........................................................................
.............................. CYCLE    7 ..............................
........................................................................

 iter      E             dE          RMSdq      gap      omega  full diag
   1    -33.1397949 -0.331398E+02  0.208E-02   12.61       0.0  T
   2    -33.1397952 -0.269551E-06  0.123E-02   12.61       1.4  T
   3    -33.1397952 -0.115666E-07  0.113E-03   12.61      15.7  T
   4    -33.1397952 -0.284656E-08  0.300E-04   12.61      59.0  T
   5    -33.1397952 -0.265040E-09  0.145E-04   12.61     121.8  T
     SCC iter.                  ...        0 min,  0.003 sec
     gradient                   ...        0 min,  0.003 sec
 * total energy  :   -32.6496520 Eh     change       -0.1392461E-04 Eh
   gradient norm :     0.0023748 Eh/α   predicted    -0.1349690E-04 (  -3.07%)
   displ. norm   :     0.0909014 α      lambda        0.5169440E-04
   maximum displ.:     0.0581231 α      in ANC's #3, #10, #11, ...

........................................................................
.............................. CYCLE    8 ..............................
........................................................................

 iter      E             dE          RMSdq      gap      omega  full diag
   1    -33.1388001 -0.331388E+02  0.140E-02   12.61       0.0  T
   2    -33.1388002 -0.132271E-06  0.826E-03   12.60       2.1  T
   3    -33.1388002 -0.550581E-08  0.806E-04   12.60      21.9  T
   4    -33.1388002 -0.119907E-08  0.205E-04   12.60      86.2  T
     SCC iter.                  ...        0 min,  0.003 sec
     gradient                   ...        0 min,  0.003 sec
 * total energy  :   -32.6496314 Eh     change        0.2057206E-04 Eh
   gradient norm :     0.0048077 Eh/α   predicted     0.2605945E-04 (  26.67%)
   displ. norm   :     0.1084308 α      lambda       -0.4647806E-04
   maximum displ.:     0.0677591 α      in ANC's #3, #10, #11, ...

........................................................................
.............................. CYCLE    9 ..............................
........................................................................

 iter      E             dE          RMSdq      gap      omega  full diag
   1    -33.1402556 -0.331403E+02  0.174E-02   12.60       0.0  T
   2    -33.1402559 -0.296948E-06  0.102E-02   12.60       1.7  T
   3    -33.1402559 -0.836831E-08  0.130E-03   12.60      13.6  T
   4    -33.1402559 -0.227548E-08  0.260E-04   12.60      68.0  T
   5    -33.1402559 -0.225107E-09  0.130E-04   12.60     135.6  T
     SCC iter.                  ...        0 min,  0.003 sec
     gradient                   ...        0 min,  0.003 sec
 * total energy  :   -32.6496560 Eh     change       -0.2452373E-04 Eh
   gradient norm :     0.0010769 Eh/α   predicted    -0.2351561E-04 (  -4.11%)
   displ. norm   :     0.0091596 α      lambda       -0.1684680E-05
   maximum displ.:     0.0051455 α      in ANC's #1, #3, #11, ...

........................................................................
.............................. CYCLE   10 ..............................
........................................................................

 iter      E             dE          RMSdq      gap      omega  full diag
   1    -33.1404759 -0.331405E+02  0.185E-03   12.59       0.0  T
   2    -33.1404759 -0.121452E-07  0.111E-03   12.59      15.9  T
   3    -33.1404759 -0.143274E-09  0.312E-04   12.59      56.7  T
   4    -33.1404759 -0.716796E-10  0.399E-05   12.59     443.0  T
     SCC iter.                  ...        0 min,  0.003 sec
     gradient                   ...        0 min,  0.003 sec
 * total energy  :   -32.6496579 Eh     change       -0.1905969E-05 Eh
   gradient norm :     0.0003122 Eh/α   predicted    -0.8432583E-06 ( -55.76%)
   displ. norm   :     0.0360127 α      lambda       -0.2079976E-05
   maximum displ.:     0.0241886 α      in ANC's #3, #1, #6, ...

   *** GEOMETRY OPTIMIZATION CONVERGED AFTER 10 ITERATIONS ***

------------------------------------------------------------------------
 total energy gain   :        -0.0021893 Eh       -1.3738 kcal/mol
 total RMSD          :         0.0661266 a0        0.0350 Å
 total power (kW/mol):        -0.5748071 (step)  -52.3919 (real)
------------------------------------------------------------------------

 ANCopt (total)                0 d,  0 h,  0 min,  0.110 sec
 optimizer setup                ...        0 min,  0.002 sec (  1.485%)
 model hessian                  ...        0 min,  0.020 sec ( 18.219%)
 ANC generation                 ...        0 min,  0.001 sec (  1.114%)
 coordinate transformation      ...        0 min,  0.000 sec (  0.136%)
 single point calculation       ...        0 min,  0.081 sec ( 73.813%)
 optimization log               ...        0 min,  0.001 sec (  0.996%)
 hessian update                 ...        0 min,  0.000 sec (  0.241%)
 rational function              ...        0 min,  0.002 sec (  1.396%)

================
 final structure:
================
32
 xtb: 6.6.1 (8d0f1dd)
C            4.90943806247487        1.32939758526278       -0.07589128484065
C            4.14887811244830        0.05185782317291        0.25731525780826
C            2.69589507396616        0.12051152255644       -0.20640071937286
C            1.92650832035653       -1.15443525147114        0.13192492870986
C            0.49878825364093       -1.16193025156916       -0.41509195708339
C           -0.42048021144645       -0.15698598470849        0.27551653758874
C           -1.84662060312167       -0.22759312145676       -0.26531953432161
C           -2.76906213592327        0.76653712386139        0.43682609290435
C           -4.17098346740921        0.82706191329677       -0.16998198904395
C           -4.96745519056076       -0.45707668708573        0.02888847432694
H            5.94087961974687        1.26267567032837        0.26256888125644
H            4.91125700211786        1.50252168040833       -1.15005726544624
H            4.44475038768691        2.18664232089944        0.40684148121526
H            4.64126268548968       -0.79872698987738       -0.22012085819087
H            4.17478774040736       -0.11537811644120        1.33672359117125
H            2.21565184001727        0.97876883801823        0.26668750043979
H            2.67093614123982        0.27896229300744       -1.28741093765565
H            2.46582311799710       -2.00839569017031       -0.28641872170234
H            1.89830689252419       -1.28349186850748        1.21662743784851
H            0.07954444737666       -2.16342219676377       -0.28749366859869
H            0.52367903189233       -0.95081453835914       -1.48700095153837
H           -0.03704444698815        0.85445896154219        0.13051529666903
H           -0.43094660631878       -0.35785511608752        1.34968406838098
H           -1.83505965424005       -0.01295113883831       -1.33690093853198
H           -2.22691717791348       -1.24200812245473       -0.13331899260215
H           -2.32047289747248        1.76174716820403        0.37749086953474
H           -2.84556972090004        0.50326737544545        1.49457980121949
H           -4.71492283665364        1.65421240546064        0.29300922559995
H           -4.09121163705130        1.04232566025309       -1.23816548557132
H           -4.50968801461624       -1.28661899858440       -0.50344011563548
H           -5.02004703540019       -0.71183577132163        1.08534278164342
H           -5.98169709336714       -0.33416949802034       -0.34464380618145
           -------------------------------------------------
          |                Final Singlepoint                |
           -------------------------------------------------

          ...................................................
          :                      SETUP                      :
          :.................................................:
          :  # basis functions                  62          :
          :  # atomic orbitals                  62          :
          :  # shells                           42          :
          :  # electrons                        62          :
          :  max. iterations                   250          :
          :  Hamiltonian                  GFN2-xTB          :
          :  restarted?                      false          :
          :  GBSA solvation                  false          :
          :  PC potential                    false          :
          :  electronic temp.          300.0000000     K    :
          :  accuracy                    1.0000000          :
          :  -> integral cutoff          0.2500000E+02      :
          :  -> integral neglect         0.1000000E-07      :
          :  -> SCF convergence          0.1000000E-05 Eh   :
          :  -> wf. convergence          0.1000000E-03 e    :
          :  Broyden damping             0.4000000          :
          ...................................................

 iter      E             dE          RMSdq      gap      omega  full diag
   1    -33.1404759 -0.331405E+02  0.196E-05   12.59       0.0  T
   2    -33.1404759 -0.106581E-12  0.116E-05   12.59    1525.5  T
   3    -33.1404759 -0.781597E-13  0.128E-06   12.59   13807.9  T

   *** convergence criteria satisfied after 3 iterations ***

         #    Occupation            Energy/Eh            Energy/eV
      -------------------------------------------------------------
         1        2.0000           -0.6225900             -16.9415
       ...           ...                  ...                  ...
        25        2.0000           -0.4304791             -11.7139
        26        2.0000           -0.4268348             -11.6148
        27        2.0000           -0.4224207             -11.4947
        28        2.0000           -0.4207060             -11.4480
        29        2.0000           -0.4184331             -11.3861
        30        2.0000           -0.4139764             -11.2649
        31        2.0000           -0.4096653             -11.1476 (HOMO)
        32                          0.0531865               1.4473 (LUMO)
        33                          0.0748295               2.0362
        34                          0.1021579               2.7799
        35                          0.1116302               3.0376
        36                          0.1203448               3.2747
       ...                                ...                  ...
        62                          0.3257259               8.8635
      -------------------------------------------------------------
                  HL-Gap            0.4628518 Eh           12.5948 eV
             Fermi-level           -0.1782394 Eh           -4.8501 eV

 SCC (total)                   0 d,  0 h,  0 min,  0.007 sec
 SCC setup                      ...        0 min,  0.001 sec ( 11.242%)
 Dispersion                     ...        0 min,  0.000 sec (  1.227%)
 classical contributions        ...        0 min,  0.000 sec (  0.334%)
 integral evaluation            ...        0 min,  0.001 sec (  9.735%)
 iterations                     ...        0 min,  0.002 sec ( 30.709%)
 molecular gradient             ...        0 min,  0.003 sec ( 34.912%)
 printout                       ...        0 min,  0.001 sec ( 11.401%)

         :::::::::::::::::::::::::::::::::::::::::::::::::::::
         ::                     SUMMARY                     ::
         :::::::::::::::::::::::::::::::::::::::::::::::::::::
         :: total energy             -32.649657863863 Eh    ::
         :: gradient norm              0.000312396880 Eh/a0 ::
         :: HOMO-LUMO gap             12.594837588874 eV    ::
         ::.................................................::
         :: SCC energy               -33.140475892425 Eh    ::
         :: -> isotropic ES            0.005752310880 Eh    ::
         :: -> anisotropic ES          0.010605174647 Eh    ::
         :: -> anisotropic XC          0.019980180138 Eh    ::
         :: -> dispersion             -0.019948861830 Eh    ::
         :: repulsion energy           0.490893302077 Eh    ::
         :: add. restraining           0.000000000000 Eh    ::
         :: total charge               0.000000000000 e     ::
         :::::::::::::::::::::::::::::::::::::::::::::::::::::

           ------------------------------------------------- 
          |                Numerical Hessian                |
           ------------------------------------------------- 
step length          :   0.00500
SCC accuracy         :   0.30000
Hessian scale factor :   1.00000
frozen atoms in %    :   0.00000    0
RMS gradient         :   0.00031
estimated CPU  time      0.17 min
estimated wall time      0.05 min

writing file <hessian>.

 projected vibrational frequencies (cm⁻¹)
eigval :       -0.00    -0.00    -0.00     0.00     0.00     0.00
eigval :       22.62    42.50    54.74    81.65    95.73   107.02
eigval :      118.64   152.02   201.39   222.33   237.47   260.66
eigval :      332.85   353.52   406.30   451.21   518.28   766.45
eigval :      773.31   789.81   816.55   830.21   894.82   923.24
eigval :      937.41   942.94   990.31  1005.84  1017.19  1035.91
eigval :     1081.32  1095.04  1107.28  1113.59  1127.57  1138.25
eigval :     1144.82  1177.41  1190.35  1223.65  1246.62  1256.34
eigval :     1272.58  1278.95  1283.64  1286.51  1291.27  1300.41
eigval :     1328.76  1349.56  1354.17  1370.78  1378.02  1380.52
eigval :     1415.81  1416.60  1490.34  1491.14  1493.24  1494.76
eigval :     1496.84  1498.80  1500.27  1502.46  1505.27  1507.71
eigval :     1508.28  1510.92  2953.97  2955.31  2955.53  2959.76
eigval :     2960.64  2963.00  2969.34  2970.93  2974.31  2977.24
eigval :     2978.18  2980.20  2982.17  2984.43  2989.26  2995.78
eigval :     3028.98  3030.59  3031.68  3033.80  3037.50  3046.59
           -------------------------------------------------
          |                Property Printout                |
           -------------------------------------------------

    * Orbital Energies and Occupations

         #    Occupation            Energy/Eh            Energy/eV
      -------------------------------------------------------------
         1        2.0000           -0.6225900             -16.9415
       ...           ...                  ...                  ...
        19        2.0000           -0.4663964             -12.6913
        20        2.0000           -0.4620089             -12.5719
        21        2.0000           -0.4538844             -12.3508
        22        2.0000           -0.4465527             -12.1513
        23        2.0000           -0.4432142             -12.0605
        24        2.0000           -0.4354896             -11.8503
        25        2.0000           -0.4304791             -11.7139
        26        2.0000           -0.4268348             -11.6148
        27        2.0000           -0.4224207             -11.4947
        28        2.0000           -0.4207060             -11.4480
        29        2.0000           -0.4184331             -11.3861
        30        2.0000           -0.4139764             -11.2649
        31        2.0000           -0.4096652             -11.1476 (HOMO)
        32                          0.0531865               1.4473 (LUMO)
        33                          0.0748295               2.0362
        34                          0.1021579               2.7799
        35                          0.1116302               3.0376
        36                          0.1203448               3.2747
        37                          0.1230115               3.3473
        38                          0.1279398               3.4814
        39                          0.1397256               3.8021
        40                          0.1416647               3.8549
        41                          0.1509244               4.1069
        42                          0.1550128               4.2181
       ...                                ...                  ...
        62                          0.3257259               8.8635
      -------------------------------------------------------------
                  HL-Gap            0.4628518 Eh           12.5948 eV
             Fermi-level           -0.1782394 Eh           -4.8501 eV

     #   Z          covCN         q      C6AA      α(0)
     1   6 C        3.752    -0.102    22.504     6.765
     2   6 C        3.801    -0.053    21.524     6.605
     3   6 C        3.803    -0.059    21.638     6.623
     4   6 C        3.802    -0.058    21.619     6.620
     5   6 C        3.802    -0.058    21.611     6.619
     6   6 C        3.802    -0.059    21.628     6.621
     7   6 C        3.802    -0.058    21.624     6.620
     8   6 C        3.802    -0.058    21.614     6.619
     9   6 C        3.800    -0.053    21.519     6.605
    10   6 C        3.751    -0.102    22.505     6.765
    11   1 H        0.925     0.032     2.556     2.500
    12   1 H        0.925     0.033     2.544     2.494
    13   1 H        0.925     0.033     2.546     2.495
    14   1 H        0.924     0.028     2.622     2.532
    15   1 H        0.924     0.028     2.617     2.530
    16   1 H        0.924     0.032     2.563     2.504
    17   1 H        0.924     0.030     2.586     2.515
    18   1 H        0.924     0.028     2.619     2.531
    19   1 H        0.924     0.029     2.602     2.522
    20   1 H        0.924     0.028     2.619     2.531
    21   1 H        0.924     0.029     2.596     2.520
    22   1 H        0.924     0.030     2.583     2.513
    23   1 H        0.924     0.028     2.608     2.525
    24   1 H        0.924     0.028     2.611     2.527
    25   1 H        0.924     0.031     2.570     2.507
    26   1 H        0.924     0.027     2.632     2.537
    27   1 H        0.924     0.030     2.589     2.516
    28   1 H        0.924     0.027     2.623     2.533
    29   1 H        0.924     0.029     2.601     2.522
    30   1 H        0.925     0.035     2.522     2.484
    31   1 H        0.925     0.033     2.538     2.491
    32   1 H        0.925     0.031     2.577     2.510

 Mol. C6AA /au·bohr⁶  :       6711.668618
 Mol. C8AA /au·bohr⁸  :     139482.605775
 Mol. α(0) /au        :        121.800046


Wiberg/Mayer (AO) data.
largest (>0.10) Wiberg bond orders for each atom

 ---------------------------------------------------------------------------
     #   Z sym  total        # sym  WBO       # sym  WBO       # sym  WBO
 ---------------------------------------------------------------------------
     1   6 C    3.997 --     2 C    1.019    12 H    0.988    13 H    0.988
                            11 H    0.988
     2   6 C    3.998 --     1 C    1.019     3 C    1.008    15 H    0.979
                            14 H    0.979
     3   6 C    3.997 --     4 C    1.008     2 C    1.008    17 H    0.977
                            16 H    0.975
     4   6 C    3.997 --     3 C    1.008     5 C    1.006    19 H    0.977
                            18 H    0.977
     5   6 C    3.997 --     6 C    1.008     4 C    1.006    20 H    0.977
                            21 H    0.977
     6   6 C    3.997 --     5 C    1.008     7 C    1.007    23 H    0.978
                            22 H    0.975
     7   6 C    3.997 --     8 C    1.008     6 C    1.007    24 H    0.977
                            25 H    0.976
     8   6 C    3.997 --     7 C    1.008     9 C    1.007    27 H    0.978
                            26 H    0.977
     9   6 C    3.998 --    10 C    1.020     8 C    1.007    28 H    0.979
                            29 H    0.978
    10   6 C    3.997 --     9 C    1.020    31 H    0.988    32 H    0.988
                            30 H    0.986
    11   1 H    0.999 --     1 C    0.988
    12   1 H    0.999 --     1 C    0.988
    13   1 H    0.999 --     1 C    0.988
    14   1 H    0.999 --     2 C    0.979
    15   1 H    0.999 --     2 C    0.979
    16   1 H    0.999 --     3 C    0.975
    17   1 H    0.999 --     3 C    0.977
    18   1 H    0.999 --     4 C    0.977
    19   1 H    0.999 --     4 C    0.977
    20   1 H    0.999 --     5 C    0.977
    21   1 H    0.999 --     5 C    0.977
    22   1 H    0.999 --     6 C    0.975
    23   1 H    0.999 --     6 C    0.978
    24   1 H    0.999 --     7 C    0.977
    25   1 H    0.999 --     7 C    0.976
    26   1 H    0.999 --     8 C    0.977
    27   1 H    0.999 --     8 C    0.978
    28   1 H    0.999 --     9 C    0.979
    29   1 H    0.999 --     9 C    0.978
    30   1 H    0.999 --    10 C    0.986
    31   1 H    0.999 --    10 C    0.988
    32   1 H    0.999 --    10 C    0.988
 ---------------------------------------------------------------------------

Topologies differ in total number of bonds
Writing topology from bond orders to xtbtopo.mol

molecular dipole:
                 x           y           z       tot (Debye)
 q only:       -0.009       0.003      -0.002
   full:       -0.005       0.002      -0.001       0.014
molecular quadrupole (traceless):
                xx          xy          yy          xz          yz          zz
 q only:        0.195       0.254       0.079       0.035       0.013      -0.274
  q+dip:       -1.876      -0.283       0.017      -0.506      -0.108       1.859
   full:       -0.818      -0.041       0.011      -0.243      -0.045       0.807

           -------------------------------------------------
          |                Geometry Summary                 |
           -------------------------------------------------

      molecular mass/u    :      142.2820555
   center of mass at/Å    :        0.0000833       0.0000943      -0.0005758
  moments of inertia/u·Å² :        0.1318346E+03   0.1582794E+04   0.1662764E+04
rotational constants/cm⁻¹ :        0.1278696E+00   0.1065055E-01   0.1013832E-01

 * 31 selected distances

     #   Z          #   Z                                           value/Å
     1   6 C        2   6 C                                       1.5236753
     2   6 C        3   6 C                                       1.5267305
     3   6 C        4   6 C                                       1.5270592
     4   6 C        5   6 C                                       1.5289436 (max)
     5   6 C        6   6 C                                       1.5270586
     6   6 C        7   6 C                                       1.5268811
     7   6 C        8   6 C                                       1.5271549
     8   6 C        9   6 C                                       1.5288110
     9   6 C       10   6 C                                       1.5241158
     1   6 C       11   1 H                                       1.0876024
     1   6 C       12   1 H                                       1.0880294
     1   6 C       13   1 H                                       1.0880415
     2   6 C       14   1 H                                       1.0926493
     2   6 C       15   1 H                                       1.0925940
     3   6 C       16   1 H                                       1.0913532
     3   6 C       17   1 H                                       1.0928462
     4   6 C       18   1 H                                       1.0932157
     4   6 C       19   1 H                                       1.0927171
     5   6 C       20   1 H                                       1.0931757
     5   6 C       21   1 H                                       1.0927847
     6   6 C       22   1 H                                       1.0913613
     6   6 C       23   1 H                                       1.0928376
     7   6 C       24   1 H                                       1.0929281
     7   6 C       25   1 H                                       1.0913696
     8   6 C       26   1 H                                       1.0932503
     8   6 C       27   1 H                                       1.0927065
     9   6 C       28   1 H                                       1.0928902
     9   6 C       29   1 H                                       1.0925741
    10   6 C       30   1 H                                       1.0867682 (min)
    10   6 C       31   1 H                                       1.0880092
    10   6 C       32   1 H                                       1.0878049

 * 2 distinct bonds (by element types)

   Z      Z             #   av. dist./Å        max./Å        min./Å
   1 H    6 C          22     1.0912504     1.0932503     1.0867682
   6 C    6 C           9     1.5267145     1.5289436     1.5236753

           -------------------------------------------------
          |               Frequency Printout                |
           -------------------------------------------------
 projected vibrational frequencies (cm⁻¹)
eigval :       -0.00    -0.00    -0.00     0.00     0.00     0.00
eigval :       22.62    42.50    54.74    81.65    95.73   107.02
eigval :      118.64   152.02   201.39   222.33   237.47   260.66
eigval :      332.85   353.52   406.30   451.21   518.28   766.45
eigval :      773.31   789.81   816.55   830.21   894.82   923.24
eigval :      937.41   942.94   990.31  1005.84  1017.19  1035.91
eigval :     1081.32  1095.04  1107.28  1113.59  1127.57  1138.25
eigval :     1144.82  1177.41  1190.35  1223.65  1246.62  1256.34
eigval :     1272.58  1278.95  1283.64  1286.51  1291.27  1300.41
eigval :     1328.76  1349.56  1354.17  1370.78  1378.02  1380.52
eigval :     1415.81  1416.60  1490.34  1491.14  1493.24  1494.76
eigval :     1496.84  1498.80  1500.27  1502.46  1505.27  1507.71
eigval :     1508.28  1510.92  2953.97  2955.31  2955.53  2959.76
eigval :     2960.64  2963.00  2969.34  2970.93  2974.31  2977.24
eigval :     2978.18  2980.20  2982.17  2984.43  2989.26  2995.78
eigval :     3028.98  3030.59  3031.68  3033.80  3037.50  3046.59
 reduced masses (amu)
   1:  9.74   2:  9.54   3: 10.03   4:  9.94   5:  9.13   6: 10.03   7:  8.49   8:  8.43
   9:  6.21  10:  6.93  11:  7.62  12:  8.16  13:  7.65  14:  6.16  15:  7.76  16:  4.46
  17:  3.40  18:  6.06  19:  8.44  20:  8.69  21:  8.45  22:  8.57  23:  8.47  24:  1.99
  25:  1.98  26:  2.71  27:  2.92  28:  2.84  29:  4.65  30:  6.65  31:  4.88  32:  5.05
  33:  7.09  34:  4.73  35:  5.58  36:  4.07  37:  7.79  38:  8.86  39:  7.31  40:  7.68
  41:  7.59  42:  7.68  43:  8.00  44:  7.15  45:  5.80  46:  4.70  47:  3.74  48:  3.74
  49:  3.12  50:  2.64  51:  2.67  52:  2.27  53:  1.99  54:  2.29  55:  3.65  56:  4.32
  57:  4.60  58:  4.76  59:  5.47  60:  5.52  61:  3.23  62:  3.18  63:  1.91  64:  1.91
  65:  1.92  66:  1.84  67:  1.94  68:  1.98  69:  1.90  70:  1.84  71:  1.53  72:  1.66
  73:  1.66  74:  1.56  75:  1.88  76:  1.89  77:  1.92  78:  1.92  79:  1.92  80:  1.86
  81:  1.63  82:  1.79  83:  1.50  84:  1.55  85:  1.53  86:  1.64  87:  1.66  88:  1.74
  89:  1.57  90:  1.65  91:  1.96  92:  1.92  93:  1.90  94:  1.71  95:  1.29  96:  1.51
 IR intensities (km·mol⁻¹)
   1:  0.00   2:  0.00   3:  0.00   4:  0.00   5:  0.00   6:  0.00   7:  0.00   8:  0.01
   9:  0.00  10:  0.01  11:  0.00  12:  0.02  13:  0.04  14:  0.05  15:  0.21  16:  0.03
  17:  0.02  18:  0.02  19:  0.08  20:  0.05  21:  0.10  22:  0.43  23:  0.81  24: 13.58
  25:  4.00  26:  5.32  27:  3.71  28:  1.47  29:  1.14  30:  1.80  31:  1.87  32:  6.08
  33:  1.21  34:  0.12  35:  1.08  36:  0.44  37:  2.29  38:  0.02  39:  0.37  40:  0.67
  41:  0.02  42:  0.91  43:  0.01  44:  0.24  45:  2.76  46:  0.65  47:  0.53  48:  0.28
  49:  0.21  50:  0.12  51:  0.17  52:  0.25  53:  0.16  54:  0.59  55:  0.00  56:  0.05
  57:  3.84  58:  1.73  59:  1.12  60:  0.82  61:  2.23  62:  0.83  63:  0.62  64:  0.49
  65:  0.06  66:  0.19  67:  0.21  68:  0.03  69:  0.16  70:  0.14  71:  2.46  72:  1.67
  73:  0.57  74:  2.14  75:  5.13  76:  8.08  77: 20.88  78:  1.78  79: 17.96  80:  6.22
  81: 23.52  82: 34.61  83:  8.54  84:  0.04  85: 42.23  86:  2.24  87: 83.05  88:190.04
  89: 75.67  90:170.20  91: 61.03  92: 59.20  93: 66.30  94: 49.26  95: 31.63  96: 37.21
 Raman intensities (amu)
   1:  0.00   2:  0.00   3:  0.00   4:  0.00   5:  0.00   6:  0.00   7:  0.00   8:  0.00
   9:  0.00  10:  0.00  11:  0.00  12:  0.00  13:  0.00  14:  0.00  15:  0.00  16:  0.00
  17:  0.00  18:  0.00  19:  0.00  20:  0.00  21:  0.00  22:  0.00  23:  0.00  24:  0.00
  25:  0.00  26:  0.00  27:  0.00  28:  0.00  29:  0.00  30:  0.00  31:  0.00  32:  0.00
  33:  0.00  34:  0.00  35:  0.00  36:  0.00  37:  0.00  38:  0.00  39:  0.00  40:  0.00
  41:  0.00  42:  0.00  43:  0.00  44:  0.00  45:  0.00  46:  0.00  47:  0.00  48:  0.00
  49:  0.00  50:  0.00  51:  0.00  52:  0.00  53:  0.00  54:  0.00  55:  0.00  56:  0.00
  57:  0.00  58:  0.00  59:  0.00  60:  0.00  61:  0.00  62:  0.00  63:  0.00  64:  0.00
  65:  0.00  66:  0.00  67:  0.00  68:  0.00  69:  0.00  70:  0.00  71:  0.00  72:  0.00
  73:  0.00  74:  0.00  75:  0.00  76:  0.00  77:  0.00  78:  0.00  79:  0.00  80:  0.00
  81:  0.00  82:  0.00  83:  0.00  84:  0.00  85:  0.00  86:  0.00  87:  0.00  88:  0.00
  89:  0.00  90:  0.00  91:  0.00  92:  0.00  93:  0.00  94:  0.00  95:  0.00  96:  0.00
 output can be read by thermo (or use thermo option).
 writing <g98.out> molden fake output.
 recommended (thermochemical) frequency scaling factor: 1.0
           -------------------------------------------------
          |             Thermodynamic Functions             |
           -------------------------------------------------

Molecule has no symmetry elements
It seems to be the C1 point group
c1  symmetry found (for desy threshold:  0.10E+00) used in thermo

          ...................................................
          :                      SETUP                      :
          :.................................................:
          :  # frequencies                          90      :
          :  # imaginary freq.                       0      :
          :  linear?                             false      :
          :  only rotor calc.                    false      :
          :  symmetry                               c1      :
          :  rotational number                       1      :
          :  scaling factor                  1.0000000      :
          :  rotor cutoff                   50.0000000 cm⁻¹ :
          :  imag. cutoff                  -20.0000000 cm⁻¹ :
          :.................................................:

    mode    ω/cm⁻¹     T·S(HO)/kcal·mol⁻¹    T·S(FR)/kcal·mol⁻¹   T·S(vib)
   ------------------------------------------------------------------------
       1     22.62    -1.90524 (  4.02%)    -1.29139 ( 95.98%)    -1.31605
       2     42.50    -1.53222 ( 34.29%)    -1.10460 ( 65.71%)    -1.25125
       3     54.74    -1.38295 ( 58.96%)    -1.02965 ( 41.04%)    -1.23794
       4     81.65    -1.14814 ( 87.67%)    -0.91122 ( 12.33%)    -1.11893
       5     95.73    -1.05526 ( 93.07%)    -0.86408 (  6.93%)    -1.04202
       6    107.02    -0.99053 ( 95.45%)    -0.83107 (  4.55%)    -0.98328
       7    118.64    -0.93095 ( 96.94%)    -0.80054 (  3.06%)    -0.92697
       8    152.02    -0.78916 ( 98.84%)    -0.72711 (  1.16%)    -0.78844
       9    201.39    -0.63219 ( 99.62%)    -0.64380 (  0.38%)    -0.63223
      10    222.33    -0.57841 ( 99.74%)    -0.61449 (  0.26%)    -0.57851
      11    237.47    -0.54315 ( 99.80%)    -0.59498 (  0.20%)    -0.54325
      12    260.66    -0.49413 ( 99.86%)    -0.56738 (  0.14%)    -0.49423
   ------------------------------------------------------------------------

   temp. (K)  partition function   enthalpy   heat capacity  entropy
                                   cal/mol     cal/K/mol   cal/K/mol   J/K/mol
 298.15  VIB  0.291E+06             6838.585     39.960     44.354
         ROT  0.142E+07              888.752      2.981     31.137
         INT  0.414E+12             7727.337     42.941     75.490
         TR   0.164E+28             1481.254      4.968     40.751
         TOT                        9208.5912    47.9088   116.2410   486.3524

       T/K    H(0)-H(T)+PV         H(T)/Eh          T*S/Eh         G(T)/Eh
   ------------------------------------------------------------------------
    298.15    0.146748E-01    0.314828E+00    0.552299E-01    0.259598E+00
   ------------------------------------------------------------------------

         :::::::::::::::::::::::::::::::::::::::::::::::::::::
         ::                  THERMODYNAMIC                  ::
         :::::::::::::::::::::::::::::::::::::::::::::::::::::
         :: total free energy         -32.390059883500 Eh   ::
         ::.................................................::
         :: total energy              -32.649657863863 Eh   ::
         :: zero point energy           0.300153015011 Eh   ::
         :: G(RRHO) w/o ZPVE           -0.040555034648 Eh   ::
         :: G(RRHO) contrib.            0.259597980363 Eh   ::
         :::::::::::::::::::::::::::::::::::::::::::::::::::::
 
 normal mode %tage of torsion character
   1:  0.00   2:  0.00   3:  0.00   4:  0.00   5:  0.00   6:  0.00   7:  0.33   8:  0.41
   9:  0.71  10:  0.56  11:  0.61  12:  0.52  13:  0.60  14:  0.57  15:  0.47  16:  0.70
  17:  0.83  18:  0.65  19:  0.32  20:  0.22  21:  0.12  22:  0.11  23:  0.09  24:  0.49
  25:  0.49  26:  0.50  27:  0.52  28:  0.48  29:  0.47  30:  0.28  31:  0.25  32:  0.24
  33:  0.33  34:  0.30  35:  0.18  36:  0.26  37:  0.08  38:  0.05  39:  0.22  40:  0.15
  41:  0.05  42:  0.11  43:  0.17  44:  0.45  45:  0.40  46:  0.41  47:  0.34  48:  0.32
  49:  0.18  50:  0.11  51:  0.20  52:  0.12  53:  0.16  54:  0.06  55:  0.08  56:  0.07
  57:  0.09  58:  0.07  59:  0.06  60:  0.06  61:  0.00  62:  0.00  63:  0.62  64:  0.64
  65:  0.63  66:  0.66  67:  0.66  68:  0.62  69:  0.63  70:  0.61  71:  0.92  72:  0.80
  73:  0.86  74:  0.90  75:  0.30  76:  0.32  77:  0.28  78:  0.39  79:  0.18  80:  0.12
  81:  0.02  82:  0.04  83:  0.01  84:  0.01  85:  0.01  86:  0.01  87:  0.02  88:  0.02
  89:  0.03  90:  0.02  91:  0.08  92:  0.04  93:  0.03  94:  0.03  95:  0.00  96:  0.02
 recommended # of modes for mode following           4

optimized geometry written to: xtbopt.xyz


           -------------------------------------------------
          | TOTAL ENERGY              -32.649657863863 Eh   |
          | TOTAL ENTHALPY            -32.334830024704 Eh   |
          | TOTAL FREE ENERGY         -32.390059883500 Eh   |
          | GRADIENT NORM               0.000312397706 Eh/α |
          | HOMO-LUMO GAP              12.594837619154 eV   |
           -------------------------------------------------

------------------------------------------------------------------------
 * finished run on 2024/04/23 at 12:10:24.866     
------------------------------------------------------------------------
 total:
 * wall-time:     0 d,  0 h,  0 min,  1.134 sec
 *  cpu-time:     0 d,  0 h,  0 min,  3.890 sec
 * ratio c/w:     3.432 speedup
 SCF:
 * wall-time:     0 d,  0 h,  0 min,  0.060 sec
 *  cpu-time:     0 d,  0 h,  0 min,  0.219 sec
 * ratio c/w:     3.632 speedup
 ANC optimizer:
 * wall-time:     0 d,  0 h,  0 min,  0.127 sec
 *  cpu-time:     0 d,  0 h,  0 min,  0.464 sec
 * ratio c/w:     3.657 speedup
 analytical hessian:
 * wall-time:     0 d,  0 h,  0 min,  0.790 sec
 *  cpu-time:     0 d,  0 h,  0 min,  2.817 sec
 * ratio c/w:     3.568 speedup

