32
 energy: -32.647468539155 gnorm: 0.028874721927 xtb: 6.6.1 (8d0f1dd)
C            4.90746500000000        1.34296400000000       -0.07896300000000
C            4.15315400000000        0.06636300000000        0.25875000000000
C            2.69469500000000        0.10271600000000       -0.20103000000000
C            1.93276100000000       -1.18277700000000        0.12490600000000
C            0.49601700000000       -1.19340300000000       -0.40573200000000
C           -0.41783800000000       -0.17432600000000        0.27582800000000
C           -1.84790400000000       -0.20483200000000       -0.26482600000000
C           -2.77190200000000        0.79276500000000        0.43489100000000
C           -4.18336500000000        0.84127300000000       -0.15958800000000
C           -4.95925500000000       -0.45461400000000        0.02099600000000
H            5.94853600000000        1.30546000000000        0.25122000000000
H            4.91145700000000        1.52635700000000       -1.15556000000000
H            4.44468500000000        2.21227700000000        0.39297900000000
H            4.65482700000000       -0.79987600000000       -0.19375000000000
H            4.18813600000000       -0.11978400000000        1.34083100000000
H            2.19154600000000        0.96396800000000        0.25438500000000
H            2.65531900000000        0.28875100000000       -1.28163100000000
H            2.48822500000000       -2.03783300000000       -0.28311200000000
H            1.92526600000000       -1.33904700000000        1.21081500000000
H            0.06026400000000       -2.19497100000000       -0.29038300000000
H            0.50466800000000       -1.00899200000000       -1.48728100000000
H           -0.00746300000000        0.83574300000000        0.15902400000000
H           -0.42819000000000       -0.35451700000000        1.35812700000000
H           -1.83687100000000       -0.00241800000000       -1.34317800000000
H           -2.25173600000000       -1.21988100000000       -0.16948300000000
H           -2.31411300000000        1.79032500000000        0.39543100000000
H           -2.83097400000000        0.54787500000000        1.50282300000000
H           -4.74560200000000        1.67155600000000        0.29168700000000
H           -4.11630700000000        1.09095100000000       -1.22728100000000
H           -4.47312500000000       -1.28876900000000       -0.48811200000000
H           -5.03921900000000       -0.72322200000000        1.07643800000000
H           -5.97494900000000       -0.38282300000000       -0.37633600000000
32
 energy: -32.649317038211 gnorm: 0.012763149948 xtb: 6.6.1 (8d0f1dd)
C            4.89879227167757        1.33928339013224       -0.08023321498952
C            4.14808844588882        0.06051579284222        0.25896973513425
C            2.69249478040637        0.10768235716186       -0.20339219209075
C            1.92984372392611       -1.17435463975697        0.12764966770734
C            0.49618000709390       -1.18344870681521       -0.40664101200668
C           -0.41876861408415       -0.16897081083862        0.27847506366013
C           -1.84503440151132       -0.21028637593941       -0.26744062268471
C           -2.76780168724189        0.78453802010263        0.43578555374119
C           -4.17489358302805        0.83672293701664       -0.16262384330095
C           -4.95415538477191       -0.45634433706186        0.02303024400960
H            5.93433286540785        1.28715123259656        0.25498629081817
H            4.90246059995077        1.51363937310747       -1.15614016555502
H            4.43418235999903        2.20169466931416        0.39766779537741
H            4.64993202775343       -0.79424638554182       -0.20801121671689
H            4.17907716952870       -0.10703335081479        1.34128393528149
H            2.19841320453327        0.96209255481487        0.26813700324356
H            2.66220619947633        0.27721986280235       -1.28507411327733
H            2.47382411222369       -2.02536636063562       -0.29772171932639
H            1.91536561342412       -1.32087867391342        1.21290142572192
H            0.07220796011215       -2.18515621717717       -0.27294844975405
H            0.51104946342850       -0.98970388954327       -1.48452866754546
H           -0.01545094308594        0.83893784362304        0.14454357099094
H           -0.43511882709344       -0.36627760881897        1.35578930712348
H           -1.82852751184987        0.00878417348799       -1.34063547503603
H           -2.24215633819912       -1.22328076646525       -0.15402408175187
H           -2.32139668272543        1.78352687637501        0.37724025369866
H           -2.83501724134571        0.53041618249212        1.49898364210167
H           -4.73008314654428        1.65747934375491        0.30613313875205
H           -4.10556107220011        1.07326143095193       -1.23013305199322
H           -4.47046389240645       -1.28407865327531       -0.49282449982720
H           -5.03159984531246       -0.71367638135134        1.07930985030838
H           -5.96421363343049       -0.36258388262696       -0.37562915181416
32
 energy: -32.649598920800 gnorm: 0.002162708900 xtb: 6.6.1 (8d0f1dd)
C            4.89564661472708        1.33694047564977       -0.08062024009240
C            4.14442574841983        0.05634617979146        0.25910849703694
C            2.69047743363163        0.11179768073429       -0.20418800911403
C            1.92772432386239       -1.16881790667108        0.12872263112470
C            0.49515695880989       -1.17742905924906       -0.40698492423621
C           -0.41867693321174       -0.16399892208915        0.28011029944363
C           -1.84282670888680       -0.21471216591589       -0.26882569996818
C           -2.76373258888452        0.78022217108951        0.43537174655380
C           -4.16952508010960        0.83380812335097       -0.16382962135274
C           -4.95325837235088       -0.45861255500277        0.02356445961354
H            5.92820157575594        1.27762156772974        0.25696693356857
H            4.89658905628843        1.50655058968462       -1.15556085526527
H            4.42801289785220        2.19444587971559        0.39931198396163
H            4.64424002521446       -0.79284712736223       -0.21393231324612
H            4.17257030656461       -0.10396546309127        1.33985505884235
H            2.20345465246115        0.96446469179977        0.27242686442876
H            2.66485673937018        0.27312433202681       -1.28505458454806
H            2.46535851695459       -2.01790154757975       -0.30284626142625
H            1.90930862453994       -1.30880881739090        1.21261239876445
H            0.07670653398424       -2.17808573111794       -0.26654755720713
H            0.51332931713175       -0.97730985904657       -1.48150183470572
H           -0.02170542242208        0.84307678382111        0.13985788413690
H           -0.43786440904649       -0.36902840864331        1.35369763480376
H           -1.82385168126856        0.01077876168373       -1.33840175976621
H           -2.23410824006191       -1.22658451619494       -0.14781660137072
H           -2.32059442357648        1.77780449325654        0.36992092654745
H           -2.83488251278901        0.52037128858317        1.49464197005497
H           -4.71893816845675        1.65099217026800        0.31143462148017
H           -4.09752043701548        1.06263214451072       -1.23010896855202
H           -4.47295999211569       -1.28419862542318       -0.49496486635815
H           -5.02660274851085       -0.70976713236803        1.07980901923247
H           -5.96080360686146       -0.35165049654975       -0.37334383238488
32
 energy: -32.649615877164 gnorm: 0.000753584757 xtb: 6.6.1 (8d0f1dd)
C            4.89596468173105        1.33600224006667       -0.08030685200297
C            4.14368944201809        0.05501724821199        0.25912682839693
C            2.69011181162255        0.11324237365953       -0.20477934603142
C            1.92731823952698       -1.16696871066312        0.12924958392204
C            0.49505251376537       -1.17523281499015       -0.40747945933182
C           -0.41853965564851       -0.16258676296251        0.28052364152880
C           -1.84226547376514       -0.21624116051224       -0.26911040955346
C           -2.76299935579360        0.77826767448363        0.43550499692683
C           -4.16847989683958        0.83322670296830       -0.16462301732025
C           -4.95401894578807       -0.45893862762608        0.02403806860531
H            5.92814116644490        1.27609003206849        0.25733531349340
H            4.89592303917907        1.50508827875545       -1.15507725750879
H            4.42742316377751        2.19264524156346        0.39971797236577
H            4.64213910632508       -0.79402303996390       -0.21451057281078
H            4.17116319265731       -0.10576200322468        1.33936109302717
H            2.20470254659364        0.96657621849735        0.27144080489964
H            2.66470304245084        0.27410617284354       -1.28531832701691
H            2.46467860928900       -2.01598126910459       -0.30148698870749
H            1.90797802386813       -1.30548126296856        1.21293622803457
H            0.07624757012955       -2.17525121085031       -0.26771074286308
H            0.51343688706669       -0.97363856034554       -1.48131990812634
H           -0.02375837111812        0.84486615851073        0.14004894910881
H           -0.43755176628979       -0.36735891909058        1.35371427805782
H           -1.82324961833965        0.00827482289937       -1.33845737607877
H           -2.23137516646614       -1.22836118009205       -0.14720562088141
H           -2.31873277619741        1.77487964189950        0.37021466560685
H           -2.83403472538308        0.51777096601568        1.49424825112443
H           -4.71683574914588        1.65074074179344        0.31009208866491
H           -4.09546885778353        1.06032294189504       -1.23080775945473
H           -4.47613412471434       -1.28493887111084       -0.49569713207567
H           -5.02537435012561       -0.70999492093287        1.08022043845509
H           -5.96164620304730       -0.34909914169415       -0.37099743245450
32
 energy: -32.649631434561 gnorm: 0.002030937437 xtb: 6.6.1 (8d0f1dd)
C            4.89810391952041        1.33360578900439       -0.07920968217373
C            4.14313301695373        0.05272285362564        0.25869634888548
C            2.69016676536090        0.11632908128736       -0.20581985427123
C            1.92650557505870       -1.16256404522389        0.13024774312058
C            0.49533556649989       -1.17021508175696       -0.40890844815478
C           -0.41838380191548       -0.15962213510143        0.28054849062019
C           -1.84177265837964       -0.22024022311160       -0.26881963314078
C           -2.76247268193953        0.77367580494354        0.43565520668890
C           -4.16705148840794        0.83155385191215       -0.16628933955074
C           -4.95700034569664       -0.45889900726172        0.02525092568129
H            5.92984409734290        1.27291032209257        0.25837321915423
H            4.89669041731077        1.50247585111210       -1.15379501995086
H            4.42840291056120        2.18914305622119        0.40116751715239
H            4.63848603497644       -0.79703620211476       -0.21596444223536
H            4.16916416212464       -0.11051971087883        1.33822321134353
H            2.20738783987149        0.97182868847693        0.26872909617386
H            2.66469784351057        0.27672329583372       -1.28610853554120
H            2.46466886837250       -2.01234059380195       -0.29661583740694
H            1.90480727509408       -1.29758505144354        1.21399238210278
H            0.07491081295412       -2.16950126737729       -0.27276334494100
H            0.51460989317768       -0.96507189732446       -1.48170329305698
H           -0.02828515295396        0.84938554123604        0.13998882956251
H           -0.43605467903193       -0.36290367830410        1.35366663528625
H           -1.82332901225675        0.00109704913403       -1.33847615174602
H           -2.22619770838958       -1.23364279681452       -0.14528757896847
H           -2.31506901961948        1.76872289780781        0.37252503699672
H           -2.83370230738347        0.51174614491638        1.49371445051745
H           -4.71373163895255        1.65143550827579        0.30506482380472
H           -4.09143447086835        1.05471862833920       -1.23277253111458
H           -4.48550700933253       -1.28631712212802       -0.49805457798421
H           -5.02269419642322       -0.71080058031832        1.08144679224588
H           -5.96602082713897       -0.34355597125745       -0.36381743909989
32
 energy: -32.649638081606 gnorm: 0.001310200611 xtb: 6.6.1 (8d0f1dd)
C            4.89935193843631        1.33293352325342       -0.07880088197920
C            4.14373210172243        0.05262926094110        0.25840458772700
C            2.69081250773521        0.11687385656004       -0.20593509032588
C            1.92640647301085       -1.16140795565568        0.13054376941537
C            0.49586817078672       -1.16896717437544       -0.40963856942184
C           -0.41858591370375       -0.15926123280071        0.27998268327017
C           -1.84224848874623       -0.22125987299434       -0.26830006576494
C           -2.76329994591094        0.77246426010410        0.43582577535441
C           -4.16734983515306        0.83091489025123       -0.16682214334347
C           -4.95828219126660       -0.45848832874073        0.02570124923757
H            5.93110502016744        1.27174583635558        0.25887042411365
H            4.89840090152224        1.50238175799142       -1.15337219363093
H            4.43023227202132        2.18871567522412        0.40186536993159
H            4.63859685627221       -0.79742115716183       -0.21663921290777
H            4.16968336460696       -0.11141407947549        1.33798480598117
H            2.20826218298030        0.97286618519678        0.26832598246912
H            2.66528475394934        0.27708643931540       -1.28642130178212
H            2.46499419625273       -2.01184614419771       -0.29490778619286
H            1.90385874296625       -1.29551368547310        1.21452697638555
H            0.07530441455088       -2.16858905450750       -0.27491812923982
H            0.51582672400855       -0.96291852100386       -1.48239758183850
H           -0.02941062015023        0.85022017794641        0.13894594293037
H           -0.43529341922754       -0.36207616555575        1.35339410838418
H           -1.82457328072869       -0.00089990493013       -1.33834959918237
H           -2.22592789675190       -1.23501526988028       -0.14384864527538
H           -2.31551316562959        1.76758448167823        0.37351120348171
H           -2.83519037292795        0.51024100970807        1.49392407054045
H           -4.71371864948687        1.65201396921294        0.30316313506247
H           -4.09105036543262        1.05301033391507       -1.23361893505194
H           -4.48881643279932       -1.28626271440029       -0.49899443531455
H           -5.02210772106604       -0.71096118529543        1.08194997128080
H           -5.96814432200840       -0.34212021120565       -0.36107048431403
32
 energy: -32.649652006211 gnorm: 0.002374838892 xtb: 6.6.1 (8d0f1dd)
C            4.90888593166344        1.32866166834743       -0.07588897288032
C            4.14854186967854        0.05187880547403        0.25661949507839
C            2.69573216447942        0.12075469415318       -0.20654493451687
C            1.92597532266960       -1.15348840654812        0.13252658776447
C            0.49937583240059       -1.16072292718113       -0.41512277138504
C           -0.42025190033160       -0.15666310399782        0.27560073096802
C           -1.84623180929315       -0.22849625721721       -0.26470147340837
C           -2.76921429554770        0.76484211460309        0.43705963341063
C           -4.17006414108754        0.82646166719559       -0.17054435338982
C           -4.96772684896243       -0.45613699064415        0.02889457681690
H            5.94049885502826        1.26265159608947        0.26265434979325
H            4.91122496899643        1.50216684173853       -1.15017556881863
H            4.44422076621976        2.18612844925790        0.40686648904379
H            4.64038700030517       -0.79933836921759       -0.22121951934479
H            4.17427936341654       -0.11661687826498        1.33626011637635
H            2.21528240521309        0.97964571595998        0.26610591748568
H            2.67030413936306        0.27901200002730       -1.28801397337029
H            2.46632288420689       -2.00832322770244       -0.28395079881545
H            1.89722644154363       -1.28130545136999        1.21776288114065
H            0.07922305341760       -2.16265180542945       -0.28948612574624
H            0.52470482672437       -0.94840998974629       -1.48721521747163
H           -0.03741367209712        0.85550886979391        0.13064882903940
H           -0.43011329782578       -0.35712204765718        1.35035539576827
H           -1.83460062788275       -0.01424003002230       -1.33684247887189
H           -2.22549658716128       -1.24382872634541       -0.13295311160534
H           -2.31980822336695        1.76033042987751        0.37961521007806
H           -2.84646384856808        0.50054054846984        1.49491928662656
H           -4.71378046965584        1.65534928114983        0.29071636531853
H           -4.08923390781080        1.04087010204821       -1.23920498545721
H           -4.51199788855128       -1.28607739839681       -0.50516660749333
H           -5.01844979929552       -0.71183488679203        1.08549083281420
H           -5.98313050788859       -0.33228728765291       -0.34218080494794
32
 energy: -32.649631434154 gnorm: 0.004807694177 xtb: 6.6.1 (8d0f1dd)
C            4.91530266329280        1.32579621098164       -0.07393060029255
C            4.15177566695382        0.05136892655136        0.25542792077636
C            2.69903884158683        0.12336562326549       -0.20695567378751
C            1.92569004923773       -1.14817051712693        0.13385491667408
C            0.50172544192194       -1.15518837334181       -0.41881013958597
C           -0.42137403564403       -0.15491603132971        0.27265589463871
C           -1.84891134914519       -0.23335413773736       -0.26229140797160
C           -2.77318439572425        0.75973157055884        0.43788801178470
C           -4.17189525826514        0.82347504732423       -0.17304318337265
C           -4.97407470332020       -0.45456880788813        0.03104222522348
H            5.94681893788416        1.25653621559129        0.26519619765580
H            4.91984102223067        1.50202363049479       -1.14802359576867
H            4.45362719064609        2.18438980931060        0.41022808427647
H            4.64159153577030       -0.80062544150151       -0.22428493622762
H            4.17737029222791       -0.12010983154528        1.33510349349347
H            2.22001027026367        0.98420136536356        0.26461267871728
H            2.67368206368419        0.28031116003775       -1.28907736214316
H            2.46720769030175       -2.00594987938480       -0.27660522082023
H            1.89277722866074       -1.27176969921834        1.21992578187735
H            0.08185607300096       -2.15865883702219       -0.29926197563959
H            0.53065838747729       -0.93867491174341       -1.49044959229483
H           -0.04279693309558        0.85905710176279        0.12507452427243
H           -0.42663952656822       -0.35379133532478        1.34830481246885
H           -1.84134477193561       -0.02320305720636       -1.33583061969499
H           -2.22521266360510       -1.24973634085704       -0.12563613077977
H           -2.32269209377701        1.75545824720259        0.38370062732957
H           -2.85402592201873        0.49404289891339        1.49558364566905
H           -4.71382727933590        1.65757927075307        0.28236786673827
H           -4.08802711429720        1.03272114748981       -1.24295001122598
H           -4.52756486070213       -1.28596341881781       -0.50929466128178
H           -5.01600645462379       -0.71242488022520        1.08786904655352
H           -5.99318799308277       -0.32569372533052       -0.32950561726251
32
 energy: -32.649655957882 gnorm: 0.001076928956 xtb: 6.6.1 (8d0f1dd)
C            4.90826859949193        1.32938595006248       -0.07617350666128
C            4.14826590223864        0.05193709755803        0.25705949779779
C            2.69536170797553        0.12029425022329       -0.20643174512944
C            1.92624345405170       -1.15460425721509        0.13215673992459
C            0.49883509455127       -1.16197800378683       -0.41465744731541
C           -0.42020378772972       -0.15706642936909        0.27596125452110
C           -1.84604813564602       -0.22747274871750       -0.26527099914427
C           -2.76864380033413        0.76620319816324        0.43692012368431
C           -4.17019947277349        0.82713234011435       -0.17003557018566
C           -4.96678524187887       -0.45671696128278        0.02859556900978
H            5.93980938956461        1.26346808748729        0.26228676025993
H            4.91011253777010        1.50238225870862       -1.15042472417783
H            4.44319146700714        2.18660132516352        0.40637715201253
H            4.64062142178312       -0.79884788612036       -0.22039978279360
H            4.17414103418058       -0.11560440123726        1.33657465621208
H            2.21484820080757        0.97863992151315        0.26655392331171
H            2.67012022343498        0.27874444798050       -1.28760017193397
H            2.46594876412166       -2.00869005508895       -0.28587604825902
H            1.89822955037818       -1.28344072354688        1.21704330020054
H            0.07907720143475       -2.16350275710953       -0.28739684799429
H            0.52355946831661       -0.95068798066466       -1.48670123064018
H           -0.03655797427496        0.85452129455717        0.13129189870365
H           -0.43089739004840       -0.35793774788275        1.35031264624273
H           -1.83395383048644       -0.01247693712755       -1.33695604343906
H           -2.22616624972755       -1.24222831329373       -0.13402355502744
H           -2.31975075567488        1.76151484862748        0.37828684291810
H           -2.84520205830674        0.50246239295735        1.49471221901896
H           -4.71419575375969        1.65460586211322        0.29271136409029
H           -4.09015895309462        1.04252435504733       -1.23832111784159
H           -4.50906668925827       -1.28628968757159       -0.50395479761773
H           -5.01938442911824       -0.71174730106787        1.08508695886643
H           -5.98121149499634       -0.33386643919458       -0.34482231861375
32
 energy: -32.649657863851 gnorm: 0.000312224606 xtb: 6.6.1 (8d0f1dd)
C            4.90943806247487        1.32939758526278       -0.07589128484065
C            4.14887811244830        0.05185782317291        0.25731525780826
C            2.69589507396616        0.12051152255644       -0.20640071937286
C            1.92650832035653       -1.15443525147114        0.13192492870986
C            0.49878825364093       -1.16193025156916       -0.41509195708339
C           -0.42048021144645       -0.15698598470849        0.27551653758874
C           -1.84662060312167       -0.22759312145676       -0.26531953432161
C           -2.76906213592327        0.76653712386139        0.43682609290435
C           -4.17098346740921        0.82706191329677       -0.16998198904395
C           -4.96745519056076       -0.45707668708573        0.02888847432694
H            5.94087961974687        1.26267567032837        0.26256888125644
H            4.91125700211786        1.50252168040833       -1.15005726544624
H            4.44475038768691        2.18664232089944        0.40684148121526
H            4.64126268548968       -0.79872698987738       -0.22012085819087
H            4.17478774040736       -0.11537811644120        1.33672359117125
H            2.21565184001727        0.97876883801823        0.26668750043979
H            2.67093614123982        0.27896229300744       -1.28741093765565
H            2.46582311799710       -2.00839569017031       -0.28641872170234
H            1.89830689252419       -1.28349186850748        1.21662743784851
H            0.07954444737666       -2.16342219676377       -0.28749366859869
H            0.52367903189233       -0.95081453835914       -1.48700095153837
H           -0.03704444698815        0.85445896154219        0.13051529666903
H           -0.43094660631878       -0.35785511608752        1.34968406838098
H           -1.83505965424005       -0.01295113883831       -1.33690093853198
H           -2.22691717791348       -1.24200812245473       -0.13331899260215
H           -2.32047289747248        1.76174716820403        0.37749086953474
H           -2.84556972090004        0.50326737544545        1.49457980121949
H           -4.71492283665364        1.65421240546064        0.29300922559995
H           -4.09121163705130        1.04232566025309       -1.23816548557132
H           -4.50968801461624       -1.28661899858440       -0.50344011563548
H           -5.02004703540019       -0.71183577132163        1.08534278164342
H           -5.98169709336714       -0.33416949802034       -0.34464380618145
