32
 energy: -32.649657863863 gnorm: 0.000312396880 xtb: 6.6.1 (8d0f1dd)
C            4.90944475816779        1.32937174703106       -0.07591074224829
C            4.14887928209481        0.05183654879227        0.25730068498066
C            2.69589498443259        0.12049704664757       -0.20641034015264
C            1.92650273622266       -1.15444510837751        0.13192021879581
C            0.49878072083750       -1.16193358766520       -0.41509167022883
C           -0.42048007167720       -0.15698330221483        0.27551827933170
C           -1.84662272090083       -0.22758391563552       -0.26531269117274
C           -2.76905659747941        0.76655238502253        0.43683442089165
C           -4.17097973019624        0.82708345583110       -0.16996887305910
C           -4.96745748286750       -0.45705062712484        0.02890661176574
H            5.94088714751660        1.26264502220054        0.26254593988769
H            4.91126085472890        1.50249395789634       -1.15007703135354
H            4.44476325696639        2.18661975827243        0.40682214969561
H            4.64125773490915       -0.79875167563916       -0.22013566521068
H            4.17479180226478       -0.11539764257858        1.33670921977554
H            2.21565789570652        0.97875770233004        0.26667805807994
H            2.67093310790468        0.27894606108182       -1.28742074785285
H            2.46581160223271       -2.00840910104912       -0.28642382373484
H            1.89830441898875       -1.28349968460636        1.21662305161405
H            0.07953211619128       -2.16342311499042       -0.28749017037496
H            0.52366886280836       -0.95081987560074       -1.48700112002729
H           -0.03703951747044        0.85445938328322        0.13051393466533
H           -0.43094376873456       -0.35785050403249        1.34968619723314
H           -1.83506438869249       -0.01294386379612       -1.33689451035121
H           -2.22692414637344       -1.24199669500783       -0.13330905148064
H           -2.32046235525550        1.76175997698384        0.37749589468145
H           -2.84556186866360        0.50328488331253        1.49458885575298
H           -4.71491315233664        1.65423760410591        0.29302279663791
H           -4.09121050139645        1.04234492078744       -1.23815302374066
H           -4.50969650858256       -1.28659626455314       -0.50342212827705
H           -5.02004697388891       -0.71180759214531        1.08536154729283
H           -5.98170004599105       -0.33413877943312       -0.34462234288120
