 Entering Gaussian System
 *********************************************
 Gaussian 98:
 frequency output generated by the xtb code
 *********************************************
                         Standard orientation:
 --------------------------------------------------------------------
  Center     Atomic     Atomic              Coordinates (Angstroms)
  Number     Number      Type              X           Y           Z
 --------------------------------------------------------------------
    1          6             0       -5.918552    5.355783    1.207918
    2          6             0       -4.827161    4.317271    1.436789
    3          6             0       -5.024524    3.080946    0.562605
    4          6             0       -3.922130    2.047228    0.778179
    5          6             0       -4.105131    0.819618   -0.111860
    6          6             0       -3.058567   -0.266977    0.139104
    7          6             0       -1.653484    0.138165   -0.300901
    8          6             0       -0.637967   -0.979088   -0.074883
    9          6             0        0.770376   -0.559687   -0.489450
   10          6             0        1.802767   -1.648768   -0.209686
   11          6             0        3.211267   -1.218836   -0.612672
   12          6             0        4.251763   -2.290449   -0.296442
   13          6             0        5.656907   -1.855510   -0.707379
   14          6             0        6.743743   -2.848452   -0.293831
   15          6             0        6.656465   -4.176548   -1.037163
   16          1             0       -5.758225    6.226547    1.839466
   17          1             0       -6.896220    4.938588    1.439294
   18          1             0       -5.923068    5.680500    0.169627
   19          1             0       -3.853341    4.761126    1.217365
   20          1             0       -4.824465    4.018782    2.487600
   21          1             0       -5.036148    3.381395   -0.487835
   22          1             0       -5.994442    2.631051    0.787566
   23          1             0       -2.958285    2.513898    0.568880
   24          1             0       -3.920058    1.734675    1.825140
   25          1             0       -5.097501    0.399918    0.070940
   26          1             0       -4.064540    1.123629   -1.160413
   27          1             0       -3.046255   -0.514848    1.203079
   28          1             0       -3.349680   -1.168695   -0.405344
   29          1             0       -1.670466    0.403163   -1.360626
   30          1             0       -1.333205    1.019354    0.257027
   31          1             0       -0.634974   -1.252627    0.982928
   32          1             0       -0.935390   -1.863565   -0.642939
   33          1             0        1.049598    0.346235    0.053921
   34          1             0        0.777342   -0.319277   -1.555107
   35          1             0        1.530097   -2.555184   -0.755136
   36          1             0        1.790988   -1.889525    0.855986
   37          1             0        3.230189   -1.001418   -1.683192
   38          1             0        3.470308   -0.297504   -0.085364
   39          1             0        3.981853   -3.210256   -0.817483
   40          1             0        4.239152   -2.498670    0.776134
   41          1             0        5.689916   -1.716368   -1.790470
   42          1             0        5.872557   -0.888983   -0.244876
   43          1             0        6.675062   -3.029468    0.781271
   44          1             0        7.719621   -2.398146   -0.490881
   45          1             0        6.682258   -4.012053   -2.112275
   46          1             0        7.494383   -4.815776   -0.767993
   47          1             0        5.737715   -4.701986   -0.790618
 --------------------------------------------------------------------
     1 basis functions        1 primitive gaussians
     1 alpha electrons        1 beta electrons
 
 Harmonic frequencies (cm**-1), IR intensities (km*mol⁻¹),
 Raman scattering activities (A**4/amu), Raman depolarization ratios,
 reduced masses (AMU), force constants (mDyne/A) and normal coordinates:
                      1                      2                      3
                        a                      a                      a 
 Frequencies --    11.6279                19.4579                28.9076
 Red. masses --     8.5641                 9.1886                 6.2708
 Frc consts  --     0.0000                 0.0000                 0.0000
 IR Inten    --     0.0009                 0.0028                 0.0044
 Raman Activ --     0.0000                 0.0000                 0.0000
 Depolar     --     0.0000                 0.0000                 0.0000
 Atom AN      X      Y      Z        X      Y      Z        X      Y      Z
   1   6    -0.12  -0.01  -0.21     0.33   0.13  -0.04     0.29   0.16  -0.21
   2   6    -0.10   0.03  -0.14     0.28   0.07  -0.07    -0.07  -0.14   0.19
   3   6    -0.05  -0.01  -0.09     0.10   0.02   0.04     0.11   0.07  -0.14
   4   6    -0.03   0.02  -0.03     0.06  -0.04   0.00    -0.17  -0.16   0.17
   5   6     0.03  -0.01   0.01    -0.09  -0.07   0.08    -0.00   0.01  -0.10
   6   6     0.03   0.01   0.08    -0.11  -0.11   0.04    -0.06  -0.05  -0.09
   7   6     0.06   0.05   0.19    -0.12  -0.16  -0.03    -0.02  -0.06   0.03
   8   6     0.04   0.02   0.12    -0.14  -0.18  -0.09    -0.03  -0.04   0.11
   9   6     0.06   0.07   0.26    -0.13  -0.15  -0.05    -0.03  -0.04   0.11
  10   6     0.03  -0.01   0.10    -0.11  -0.14  -0.11    -0.00  -0.00   0.16
  11   6     0.06   0.04   0.24    -0.11  -0.03   0.04    -0.03   0.00   0.05
  12   6     0.01  -0.07   0.00    -0.07  -0.01  -0.01     0.02   0.05   0.06
  13   6     0.04  -0.01   0.16    -0.06   0.16   0.21    -0.03   0.05  -0.12
  14   6    -0.01  -0.18  -0.11    -0.03   0.16   0.14     0.03   0.10  -0.15
  15   6    -0.04   0.05  -0.53     0.17   0.31  -0.14    -0.02   0.04  -0.04
  16   1    -0.04   0.01  -0.07     0.13   0.05  -0.04     0.04  -0.00   0.02
  17   1    -0.03  -0.01  -0.06     0.09   0.07   0.03     0.02   0.10  -0.24
  18   1    -0.03  -0.02  -0.06     0.07   0.01  -0.02     0.27   0.10  -0.04
  19   1    -0.03   0.01  -0.04     0.08  -0.01  -0.06     0.04  -0.09   0.23
  20   1    -0.03   0.02  -0.04     0.11   0.04  -0.01    -0.20  -0.09   0.04
  21   1    -0.01  -0.02  -0.03    -0.00  -0.02   0.01     0.19   0.08  -0.02
  22   1    -0.01  -0.01  -0.03     0.03   0.03   0.05    -0.02   0.06  -0.20
  23   1    -0.01   0.01  -0.01     0.02  -0.03  -0.03     0.00  -0.09   0.19
  24   1    -0.01   0.02  -0.00     0.04   0.01   0.01    -0.19  -0.10   0.03
  25   1     0.01  -0.01  -0.00    -0.03  -0.01   0.06    -0.01  -0.00  -0.11
  26   1     0.02  -0.01  -0.00    -0.05  -0.04   0.02     0.07   0.06  -0.01
  27   1    -0.01  -0.00   0.02    -0.02  -0.03   0.01    -0.04  -0.03  -0.03
  28   1     0.03   0.00   0.01    -0.05  -0.03   0.02    -0.01  -0.00  -0.05
  29   1     0.03   0.05   0.06    -0.05  -0.04  -0.01     0.02  -0.02   0.01
  30   1     0.01  -0.00   0.09    -0.02  -0.05  -0.01    -0.02  -0.01   0.01
  31   1    -0.01  -0.03   0.03    -0.04  -0.07  -0.03    -0.01   0.00   0.04
  32   1     0.02   0.03  -0.00    -0.04  -0.04  -0.04    -0.00  -0.02   0.04
  33   1     0.02  -0.01   0.13    -0.04  -0.05   0.00    -0.01  -0.00   0.02
  34   1     0.03   0.08   0.09    -0.04  -0.02  -0.01    -0.01  -0.03   0.03
  35   1     0.01   0.03  -0.03    -0.01  -0.03  -0.06    -0.00  -0.01   0.07
  36   1    -0.01  -0.06   0.01    -0.05  -0.08  -0.04     0.02   0.02   0.05
  37   1     0.03   0.09   0.09    -0.01   0.03   0.02    -0.03  -0.02   0.01
  38   1     0.02  -0.03   0.14    -0.06  -0.02   0.05    -0.01   0.01  -0.01
  39   1    -0.00   0.02  -0.07     0.02   0.02  -0.05    -0.00  -0.00   0.05
  40   1    -0.01  -0.10  -0.01    -0.05  -0.05  -0.01     0.03   0.04   0.02
  41   1     0.02   0.09   0.06     0.01   0.10   0.07    -0.04  -0.01  -0.04
  42   1     0.02  -0.05   0.13    -0.05   0.03   0.12    -0.00   0.02  -0.06
  43   1    -0.02  -0.15  -0.05    -0.04  -0.02   0.03     0.04   0.05  -0.04
  44   1     0.00  -0.05   0.02    -0.01   0.08   0.10     0.00   0.03  -0.08
  45   1     0.00   0.11  -0.14     0.09   0.15  -0.03    -0.04  -0.01  -0.02
  46   1    -0.02  -0.02  -0.20     0.05   0.09  -0.04     0.01   0.02  -0.02
  47   1    -0.02   0.00  -0.21     0.05   0.06  -0.10     0.01   0.01   0.03
                      4                      5                      6
                        a                      a                      a 
 Frequencies --    42.2272                49.4136                50.1801
 Red. masses --     8.4939                 7.6167                 8.3630
 Frc consts  --     0.0000                 0.0000                 0.0000
 IR Inten    --     0.0016                 0.0025                 0.0087
 Raman Activ --     0.0000                 0.0000                 0.0000
 Depolar     --     0.0000                 0.0000                 0.0000
 Atom AN      X      Y      Z        X      Y      Z        X      Y      Z
   1   6    -0.08   0.06  -0.24     0.23   0.01  -0.09     0.11   0.02  -0.11
   2   6    -0.21   0.00   0.08     0.17  -0.05  -0.09     0.01  -0.06   0.04
   3   6    -0.02   0.02   0.02    -0.03  -0.14   0.08    -0.01  -0.09   0.07
   4   6    -0.09  -0.01   0.23    -0.03  -0.15   0.02    -0.05  -0.11   0.14
   5   6     0.03   0.01   0.19    -0.07  -0.15   0.03    -0.06  -0.13   0.17
   6   6     0.08   0.05   0.19    -0.03  -0.13  -0.05     0.05  -0.05   0.08
   7   6     0.06   0.10   0.15    -0.02   0.04   0.14    -0.06  -0.04  -0.28
   8   6     0.04   0.04  -0.09     0.00  -0.00  -0.15     0.07   0.13  -0.07
   9   6     0.04   0.04  -0.11     0.03   0.21   0.17     0.01   0.11  -0.29
  10   6    -0.02  -0.07  -0.36     0.02   0.12  -0.13     0.07   0.24   0.01
  11   6     0.02  -0.04  -0.20     0.06   0.24   0.11     0.08   0.16  -0.04
  12   6    -0.03  -0.12  -0.27    -0.01   0.11  -0.11     0.01   0.14   0.15
  13   6     0.04  -0.04   0.05     0.02   0.05  -0.09     0.07  -0.01   0.21
  14   6    -0.02  -0.04   0.21    -0.05  -0.01  -0.05    -0.09  -0.22   0.11
  15   6     0.15  -0.01   0.14    -0.29  -0.13   0.20    -0.20  -0.07  -0.15
  16   1    -0.07   0.01  -0.05     0.11   0.02  -0.06     0.04   0.01  -0.04
  17   1    -0.05   0.03  -0.16     0.06   0.03   0.03     0.02   0.03  -0.06
  18   1     0.08   0.02  -0.07     0.03  -0.04  -0.04     0.07  -0.01  -0.04
  19   1    -0.03  -0.01   0.11     0.05  -0.04  -0.08     0.02  -0.04   0.03
  20   1    -0.15  -0.00   0.02     0.08   0.02  -0.02    -0.03  -0.00   0.01
  21   1     0.06   0.01   0.01    -0.05  -0.07   0.01     0.01  -0.03   0.02
  22   1    -0.02   0.01  -0.06    -0.00  -0.02   0.08    -0.01  -0.01   0.02
  23   1    -0.01  -0.01   0.12    -0.01  -0.04  -0.01    -0.01  -0.04   0.05
  24   1    -0.08  -0.00   0.07     0.01  -0.04   0.01    -0.03  -0.02   0.04
  25   1     0.01  -0.02   0.04    -0.01  -0.05   0.02    -0.00  -0.06   0.08
  26   1     0.02   0.01   0.06    -0.04  -0.04   0.01    -0.05  -0.04   0.05
  27   1     0.03   0.02   0.05    -0.03  -0.09  -0.03     0.09   0.03   0.03
  28   1     0.03   0.01   0.06     0.02  -0.02  -0.06    -0.00  -0.04   0.08
  29   1    -0.00   0.07   0.06     0.01   0.10   0.06    -0.07  -0.11  -0.10
  30   1     0.03   0.00   0.08    -0.02  -0.04   0.12    -0.02   0.05  -0.18
  31   1     0.03  -0.04  -0.04    -0.03  -0.11  -0.07     0.05   0.12   0.00
  32   1    -0.01   0.04  -0.06     0.03   0.06  -0.15     0.03  -0.02   0.06
  33   1     0.03  -0.02   0.01    -0.02   0.00   0.16    -0.00   0.09  -0.17
  34   1    -0.00   0.07  -0.02     0.04   0.18   0.08    -0.02  -0.06  -0.11
  35   1    -0.01   0.02  -0.17     0.02   0.09  -0.13     0.03   0.03   0.07
  36   1    -0.02  -0.09  -0.12    -0.02  -0.07  -0.06     0.01   0.15   0.02
  37   1     0.03   0.03  -0.05     0.04   0.16   0.05     0.03  -0.00  -0.02
  38   1     0.00  -0.04  -0.01     0.01   0.02   0.12     0.03   0.06  -0.05
  39   1     0.01  -0.00  -0.14    -0.03   0.06  -0.07    -0.00   0.03   0.06
  40   1    -0.06  -0.10  -0.09     0.00  -0.02  -0.04    -0.02   0.07   0.05
  41   1     0.08   0.01   0.02     0.01   0.01  -0.03     0.03   0.03   0.06
  42   1    -0.02  -0.02   0.05     0.02   0.01  -0.03     0.06  -0.03   0.09
  43   1    -0.06  -0.03   0.06     0.02   0.05  -0.00    -0.06  -0.12   0.02
  44   1     0.00  -0.00   0.12    -0.01  -0.04  -0.07    -0.00  -0.09   0.08
  45   1     0.11   0.01   0.04    -0.14  -0.09   0.05    -0.03   0.04  -0.03
  46   1     0.03  -0.00   0.08    -0.08  -0.04   0.04    -0.09  -0.07  -0.06
  47   1     0.03  -0.01  -0.02    -0.08  -0.01   0.14    -0.08   0.00  -0.10
                      7                      8                      9
                        a                      a                      a 
 Frequencies --    82.8360                91.2023               101.0086
 Red. masses --     7.7905                 7.5805                 7.8586
 Frc consts  --     0.0000                 0.0000                 0.0000
 IR Inten    --     0.0063                 0.0106                 0.0110
 Raman Activ --     0.0000                 0.0000                 0.0000
 Depolar     --     0.0000                 0.0000                 0.0000
 Atom AN      X      Y      Z        X      Y      Z        X      Y      Z
   1   6     0.17   0.06   0.00    -0.05   0.06  -0.19    -0.01   0.08  -0.12
   2   6     0.11  -0.03  -0.09    -0.05   0.09  -0.00    -0.05   0.07   0.03
   3   6    -0.19  -0.13   0.12    -0.11  -0.07   0.24    -0.15  -0.07   0.24
   4   6    -0.18  -0.14   0.02    -0.04  -0.01   0.20    -0.08  -0.01   0.17
   5   6    -0.08  -0.04  -0.13     0.03   0.09   0.05    -0.02   0.07   0.03
   6   6    -0.05  -0.02  -0.17     0.03   0.05  -0.10     0.03   0.08  -0.11
   7   6    -0.00   0.14   0.12     0.07   0.13   0.08    -0.04  -0.03  -0.42
   8   6     0.04   0.19   0.19    -0.05  -0.07  -0.35     0.00   0.08  -0.03
   9   6     0.03   0.16   0.11     0.02  -0.08  -0.13     0.05   0.01   0.07
  10   6     0.00   0.14   0.13    -0.02  -0.09   0.00    -0.01  -0.06   0.10
  11   6    -0.03  -0.08  -0.23    -0.00  -0.13   0.02     0.04  -0.03   0.32
  12   6    -0.06  -0.06  -0.09     0.07   0.05   0.39    -0.00  -0.21  -0.15
  13   6    -0.03  -0.13  -0.07    -0.01  -0.04   0.02    -0.02  -0.06  -0.09
  14   6    -0.06  -0.07   0.13     0.08   0.02  -0.11     0.10   0.07  -0.09
  15   6     0.29   0.01  -0.05     0.06   0.01  -0.09     0.16  -0.02   0.07
  16   1     0.12   0.04  -0.05    -0.00   0.06  -0.11     0.02   0.06  -0.09
  17   1     0.05   0.06   0.09    -0.01   0.04  -0.01    -0.01   0.05   0.00
  18   1    -0.01  -0.03  -0.01    -0.03  -0.05  -0.08    -0.01  -0.04  -0.05
  19   1     0.03  -0.05  -0.10    -0.02   0.01  -0.04    -0.01  -0.00  -0.03
  20   1     0.09   0.03  -0.01    -0.00   0.09   0.02    -0.01   0.08   0.02
  21   1    -0.11  -0.08   0.02    -0.08  -0.07   0.06    -0.10  -0.06   0.06
  22   1    -0.05  -0.01   0.11    -0.02  -0.02   0.13    -0.03  -0.02   0.13
  23   1    -0.05  -0.02   0.03    -0.02   0.02   0.07    -0.03   0.02   0.06
  24   1    -0.05  -0.08  -0.01    -0.01  -0.03   0.05    -0.02  -0.03   0.04
  25   1    -0.02  -0.03  -0.07     0.01   0.01  -0.01     0.00   0.00   0.00
  26   1    -0.00   0.02  -0.03     0.01   0.07   0.03    -0.02   0.05   0.02
  27   1    -0.05  -0.06  -0.06    -0.01  -0.05  -0.04     0.07   0.05  -0.02
  28   1     0.03   0.02  -0.10     0.02   0.05  -0.09    -0.03   0.01   0.01
  29   1     0.05   0.07   0.04     0.03   0.16   0.06    -0.04  -0.14  -0.15
  30   1    -0.05   0.03   0.07     0.04  -0.04   0.13    -0.01   0.06  -0.24
  31   1     0.02   0.08   0.06    -0.03  -0.14  -0.13    -0.04   0.10   0.01
  32   1     0.01   0.04   0.08    -0.04   0.05  -0.21     0.03  -0.02   0.04
  33   1     0.02   0.06   0.01    -0.02  -0.03  -0.02     0.02  -0.00   0.03
  34   1    -0.01   0.03   0.03     0.05  -0.01  -0.03     0.04   0.01   0.02
  35   1    -0.05   0.01   0.11    -0.00  -0.04   0.02     0.01   0.00  -0.01
  36   1     0.05   0.10   0.05    -0.02   0.00   0.01    -0.05  -0.05   0.02
  37   1    -0.05  -0.11  -0.08     0.02  -0.12  -0.01     0.02   0.12   0.12
  38   1     0.03   0.01  -0.15    -0.03   0.01  -0.06     0.03  -0.08   0.20
  39   1    -0.02  -0.04   0.00     0.02  -0.06   0.24    -0.02  -0.00  -0.14
  40   1    -0.03   0.02  -0.02     0.06   0.15   0.14     0.02  -0.18  -0.07
  41   1     0.01  -0.07  -0.02    -0.08  -0.06  -0.00    -0.00  -0.01  -0.03
  42   1    -0.02  -0.02  -0.05     0.03   0.01  -0.05    -0.04  -0.02  -0.02
  43   1    -0.10  -0.06   0.03     0.07   0.01  -0.03     0.06   0.05  -0.02
  44   1    -0.01   0.01   0.13     0.01   0.02  -0.07     0.01   0.04  -0.07
  45   1     0.23   0.03  -0.01    -0.01   0.00  -0.03     0.01  -0.04   0.01
  46   1     0.05  -0.01   0.08     0.03   0.01  -0.05     0.08   0.03   0.01
  47   1     0.05  -0.00  -0.16     0.03  -0.01  -0.00     0.07  -0.03   0.07
                     10                     11                     12
                        a                      a                      a 
 Frequencies --   112.1128               118.5304               133.6638
 Red. masses --     6.5918                 6.9868                 8.3878
 Frc consts  --     0.0000                 0.0000                 0.0000
 IR Inten    --     0.0086                 0.0020                 0.0761
 Raman Activ --     0.0000                 0.0000                 0.0000
 Depolar     --     0.0000                 0.0000                 0.0000
 Atom AN      X      Y      Z        X      Y      Z        X      Y      Z
   1   6     0.07   0.03  -0.02     0.17   0.12  -0.14    -0.14  -0.13  -0.23
   2   6    -0.10  -0.11   0.14    -0.15  -0.15   0.20    -0.00   0.08   0.09
   3   6     0.01   0.01  -0.05    -0.23  -0.16   0.23     0.20  -0.03   0.21
   4   6     0.15   0.13  -0.24     0.14   0.13  -0.29     0.29   0.05   0.12
   5   6    -0.11  -0.11   0.14     0.02   0.01  -0.10     0.14   0.15  -0.00
   6   6    -0.01  -0.03   0.11     0.03   0.04  -0.05    -0.07  -0.07  -0.17
   7   6    -0.09  -0.00  -0.10     0.07   0.06   0.10    -0.01  -0.15  -0.02
   8   6    -0.05   0.00  -0.23     0.03   0.04   0.16    -0.06  -0.19  -0.06
   9   6     0.01   0.17   0.15     0.00  -0.09  -0.07    -0.06  -0.05   0.09
  10   6    -0.03   0.11   0.09     0.00  -0.08  -0.03     0.06   0.13   0.27
  11   6    -0.00   0.04   0.09    -0.01  -0.07  -0.07    -0.04   0.10  -0.10
  12   6    -0.04   0.00   0.11     0.02  -0.03  -0.05    -0.05   0.06  -0.24
  13   6    -0.07  -0.15  -0.17     0.03   0.09   0.12     0.01   0.06  -0.05
  14   6    -0.03  -0.04   0.00     0.03   0.04  -0.01    -0.13  -0.03   0.11
  15   6     0.27  -0.04  -0.03    -0.16   0.04   0.02    -0.08   0.02   0.02
  16   1    -0.03  -0.04   0.07     0.05   0.01  -0.01    -0.12  -0.00  -0.10
  17   1    -0.02   0.02  -0.14    -0.00   0.10  -0.15    -0.03  -0.08  -0.10
  18   1     0.14   0.08   0.02     0.18   0.05  -0.04    -0.01  -0.09  -0.08
  19   1    -0.00  -0.05   0.13     0.00  -0.11   0.11    -0.01   0.05   0.04
  20   1    -0.12  -0.07   0.03    -0.13  -0.02   0.06    -0.03   0.07   0.04
  21   1    -0.02   0.05  -0.00    -0.21  -0.03   0.07     0.03  -0.02   0.06
  22   1     0.02  -0.04  -0.02    -0.01  -0.12   0.18     0.08  -0.04   0.08
  23   1     0.01   0.04  -0.21    -0.03   0.11  -0.24     0.07   0.03   0.02
  24   1     0.17   0.11  -0.05     0.22   0.06  -0.08     0.11  -0.01   0.03
  25   1    -0.01  -0.03   0.17     0.01   0.01   0.02     0.02   0.09  -0.02
  26   1    -0.13  -0.12   0.01    -0.03  -0.04  -0.04     0.05   0.08   0.01
  27   1     0.04   0.03   0.04    -0.02   0.00  -0.01    -0.04  -0.09  -0.06
  28   1    -0.01  -0.03   0.07     0.03   0.01  -0.03    -0.05   0.03  -0.11
  29   1    -0.07   0.00  -0.03     0.05   0.03   0.03     0.03  -0.01   0.00
  30   1    -0.01  -0.00  -0.03     0.01   0.01   0.05    -0.00  -0.06   0.03
  31   1    -0.06  -0.08  -0.09     0.04   0.06   0.06    -0.04  -0.09  -0.03
  32   1     0.03   0.04  -0.15    -0.02  -0.01   0.09     0.00  -0.04  -0.06
  33   1    -0.04   0.01   0.12     0.03  -0.01  -0.07    -0.07   0.01   0.02
  34   1     0.06   0.12   0.06    -0.03  -0.07  -0.03     0.01  -0.03   0.02
  35   1    -0.02   0.04   0.01    -0.00  -0.03   0.00     0.01  -0.02   0.17
  36   1    -0.01   0.02   0.02     0.01  -0.01  -0.01     0.07   0.13   0.10
  37   1     0.00   0.00   0.02    -0.01  -0.03  -0.02    -0.08   0.01  -0.03
  38   1     0.01   0.01   0.02    -0.01  -0.01  -0.03     0.03   0.04  -0.06
  39   1    -0.05  -0.02   0.09     0.04  -0.00  -0.05    -0.01   0.04  -0.11
  40   1     0.03   0.05   0.04    -0.02  -0.03  -0.02    -0.03  -0.03  -0.08
  41   1    -0.05  -0.13  -0.06     0.02   0.08   0.04     0.05   0.03  -0.01
  42   1    -0.00  -0.01  -0.13    -0.01   0.00   0.09    -0.01   0.01   0.01
  43   1    -0.06  -0.02  -0.00     0.05   0.02  -0.00    -0.11  -0.02   0.02
  44   1    -0.01   0.02   0.05     0.01  -0.00  -0.04    -0.02  -0.03   0.09
  45   1     0.22  -0.01  -0.01    -0.16   0.01   0.00     0.07   0.02   0.01
  46   1     0.04  -0.02   0.10    -0.01   0.02  -0.08    -0.07  -0.03   0.07
  47   1     0.04  -0.00  -0.13    -0.01  -0.00   0.10    -0.07   0.04  -0.08
                     13                     14                     15
                        a                      a                      a 
 Frequencies --   142.9932               146.4734               160.1066
 Red. masses --     7.1705                 6.8684                 8.7844
 Frc consts  --     0.0000                 0.0000                 0.0000
 IR Inten    --     0.0088                 0.0118                 0.0332
 Raman Activ --     0.0000                 0.0000                 0.0000
 Depolar     --     0.0000                 0.0000                 0.0000
 Atom AN      X      Y      Z        X      Y      Z        X      Y      Z
   1   6     0.04   0.04   0.08     0.00   0.08  -0.01     0.03   0.26   0.14
   2   6    -0.00  -0.03  -0.04    -0.05   0.03   0.03    -0.12   0.06  -0.03
   3   6    -0.05   0.02  -0.09    -0.10  -0.00   0.09    -0.28   0.07  -0.02
   4   6    -0.08  -0.00  -0.05    -0.02   0.05  -0.02    -0.24   0.07  -0.04
   5   6    -0.05  -0.06   0.02     0.05   0.11  -0.13    -0.04   0.04  -0.05
   6   6     0.00   0.00   0.07    -0.09  -0.01  -0.01    -0.05   0.04   0.14
   7   6     0.03   0.12   0.24    -0.01  -0.14   0.10    -0.03  -0.20  -0.07
   8   6    -0.03  -0.02  -0.18    -0.02  -0.13   0.20    -0.05  -0.27  -0.17
   9   6    -0.05  -0.12  -0.38    -0.10  -0.16  -0.13     0.03  -0.10   0.17
  10   6     0.04   0.13   0.28     0.04  -0.06  -0.23     0.17   0.01   0.14
  11   6     0.05   0.09   0.27     0.08   0.26   0.20     0.10   0.01  -0.18
  12   6    -0.02  -0.12  -0.18     0.07   0.23   0.10     0.17   0.08  -0.14
  13   6    -0.00  -0.04  -0.05     0.08  -0.05  -0.19     0.23   0.06   0.04
  14   6     0.03   0.01  -0.02    -0.04  -0.10   0.03     0.10  -0.09   0.05
  15   6     0.09  -0.03   0.04     0.09  -0.09  -0.01    -0.03  -0.07   0.01
  16   1     0.03  -0.00   0.04     0.02   0.03  -0.02     0.08   0.06   0.04
  17   1     0.01   0.02   0.02    -0.01   0.04   0.01    -0.01   0.13   0.08
  18   1     0.01   0.04   0.03     0.00   0.00  -0.01    -0.02   0.08   0.04
  19   1     0.00  -0.01  -0.01    -0.01  -0.00  -0.00    -0.02  -0.02  -0.03
  20   1     0.00  -0.03  -0.02    -0.01   0.03   0.01    -0.02   0.01  -0.01
  21   1     0.00   0.01  -0.02    -0.07  -0.01   0.03    -0.10   0.02  -0.01
  22   1    -0.02   0.02  -0.04    -0.02  -0.01   0.06    -0.08   0.03   0.02
  23   1    -0.02  -0.01  -0.02    -0.02   0.04   0.00    -0.07   0.04   0.01
  24   1    -0.03   0.01  -0.01     0.00  -0.01  -0.01    -0.09   0.02  -0.01
  25   1    -0.01  -0.03   0.02    -0.00   0.05  -0.10    -0.02   0.00  -0.06
  26   1    -0.02  -0.03   0.00     0.08   0.05  -0.03     0.03   0.00  -0.02
  27   1    -0.03  -0.02   0.01    -0.06   0.00  -0.00     0.00   0.09   0.06
  28   1     0.03   0.01  -0.01    -0.04   0.00  -0.01    -0.05  -0.02   0.11
  29   1     0.02   0.15   0.10     0.02  -0.06   0.02    -0.04  -0.07  -0.02
  30   1     0.02  -0.03   0.17    -0.01  -0.03   0.02     0.04  -0.05  -0.05
  31   1     0.04  -0.06  -0.07     0.04   0.03   0.07    -0.06  -0.16  -0.07
  32   1    -0.07   0.03  -0.08    -0.03  -0.07   0.12     0.02  -0.04  -0.13
  33   1    -0.04   0.06  -0.25    -0.01  -0.03  -0.08    -0.05  -0.05   0.11
  34   1    -0.01  -0.21  -0.15    -0.09  -0.08  -0.04     0.05   0.03   0.06
  35   1     0.06  -0.04   0.19     0.09   0.01  -0.16     0.04  -0.03   0.09
  36   1    -0.02   0.18   0.11    -0.04  -0.10  -0.09     0.11   0.04   0.05
  37   1    -0.01   0.12   0.10     0.08   0.17   0.08    -0.02  -0.05  -0.07
  38   1     0.06  -0.03   0.15    -0.04   0.04   0.16     0.04   0.03  -0.11
  39   1    -0.03   0.03  -0.16    -0.04   0.06   0.07     0.07   0.02  -0.05
  40   1    -0.00  -0.16  -0.08     0.07   0.10   0.04     0.02   0.02  -0.04
  41   1     0.02   0.01  -0.01    -0.00  -0.11  -0.07     0.11   0.05   0.02
  42   1    -0.02  -0.02   0.01     0.07   0.02  -0.14     0.08  -0.00   0.05
  43   1     0.01   0.01  -0.00    -0.09  -0.03   0.00     0.01  -0.03   0.01
  44   1     0.00   0.01  -0.01     0.01  -0.05   0.08     0.05  -0.06   0.03
  45   1     0.03  -0.02   0.01     0.26  -0.03   0.00    -0.01  -0.01   0.00
  46   1     0.03   0.00   0.02    -0.08  -0.09   0.17    -0.02  -0.04  -0.01
  47   1     0.03  -0.01   0.01    -0.07   0.05  -0.19    -0.02   0.00   0.00
                     16                     17                     18
                        a                      a                      a 
 Frequencies --   195.9662               223.0463               233.8250
 Red. masses --     7.8330                 6.1229                 2.4229
 Frc consts  --     0.0000                 0.0000                 0.0000
 IR Inten    --     0.0148                 0.0357                 0.0003
 Raman Activ --     0.0000                 0.0000                 0.0000
 Depolar     --     0.0000                 0.0000                 0.0000
 Atom AN      X      Y      Z        X      Y      Z        X      Y      Z
   1   6     0.10  -0.04   0.03     0.05  -0.05  -0.03     0.01   0.02  -0.03
   2   6     0.01  -0.14  -0.05    -0.01  -0.09   0.05    -0.14  -0.09   0.19
   3   6    -0.08  -0.12  -0.04    -0.01  -0.07   0.02     0.09   0.08  -0.10
   4   6    -0.03  -0.04  -0.01     0.06   0.01  -0.04     0.05   0.04  -0.06
   5   6     0.23  -0.01  -0.08     0.25   0.12  -0.22    -0.08  -0.03   0.06
   6   6     0.30   0.16   0.18     0.01   0.01   0.25    -0.02  -0.02  -0.06
   7   6     0.22   0.10  -0.08    -0.02  -0.16   0.07    -0.01   0.04  -0.00
   8   6     0.06  -0.01  -0.11     0.02  -0.10  -0.05    -0.01   0.03   0.02
   9   6     0.08  -0.09   0.04    -0.07   0.15  -0.05     0.01  -0.02   0.01
  10   6    -0.05  -0.14   0.11    -0.03   0.22  -0.05     0.00  -0.04   0.01
  11   6    -0.12  -0.06   0.06    -0.01   0.12  -0.01     0.01  -0.03   0.00
  12   6    -0.09   0.01  -0.01    -0.17  -0.02   0.05     0.04  -0.00  -0.01
  13   6    -0.17   0.10  -0.11    -0.16  -0.13   0.02     0.04   0.02   0.01
  14   6    -0.23   0.12   0.05    -0.08  -0.03   0.03     0.03   0.00  -0.02
  15   6    -0.23   0.15   0.01     0.16  -0.01  -0.03    -0.02  -0.01   0.01
  16   1     0.08  -0.00  -0.02     0.09   0.05  -0.11     0.29   0.23  -0.39
  17   1     0.02   0.03   0.06     0.02   0.04   0.11     0.02   0.21   0.43
  18   1    -0.00  -0.03   0.00    -0.05  -0.12  -0.04    -0.26  -0.39  -0.13
  19   1     0.01  -0.06  -0.02     0.00  -0.04   0.02    -0.01  -0.04   0.16
  20   1     0.01  -0.04  -0.01    -0.02  -0.02   0.01    -0.14  -0.06   0.05
  21   1    -0.03  -0.04  -0.01    -0.02  -0.01   0.01     0.11   0.09  -0.01
  22   1    -0.02  -0.04  -0.00     0.01  -0.04   0.01     0.01   0.01  -0.14
  23   1    -0.01   0.01   0.04     0.01   0.03   0.04     0.02  -0.01  -0.05
  24   1    -0.04  -0.03  -0.01    -0.01  -0.04  -0.02     0.03   0.04  -0.01
  25   1     0.07  -0.03  -0.09     0.03   0.08  -0.21    -0.01  -0.01   0.08
  26   1     0.12   0.00  -0.02     0.23   0.05  -0.05    -0.08  -0.03   0.01
  27   1     0.12   0.15   0.08    -0.01   0.12   0.10    -0.00  -0.04  -0.03
  28   1     0.10  -0.02   0.15    -0.02  -0.05   0.17    -0.00   0.01  -0.04
  29   1     0.02   0.00  -0.03    -0.05  -0.07   0.01     0.01   0.02   0.00
  30   1     0.11   0.04  -0.06     0.02  -0.03  -0.02    -0.01   0.01   0.01
  31   1    -0.01  -0.03  -0.04     0.02  -0.06  -0.02    -0.01   0.02   0.01
  32   1     0.00   0.02  -0.06     0.03  -0.02  -0.04    -0.01   0.01   0.01
  33   1     0.03  -0.03   0.03    -0.05   0.05  -0.00     0.01  -0.01  -0.00
  34   1     0.06  -0.02   0.01    -0.03   0.06  -0.01     0.00  -0.01   0.00
  35   1    -0.02  -0.04   0.04    -0.01   0.06  -0.01    -0.00  -0.01   0.00
  36   1    -0.01  -0.03   0.03    -0.01   0.07  -0.01     0.00  -0.01   0.00
  37   1    -0.06  -0.01   0.02     0.02   0.04  -0.00    -0.00  -0.01  -0.00
  38   1    -0.04  -0.01   0.02     0.02   0.03   0.00    -0.00  -0.01  -0.00
  39   1    -0.03  -0.00   0.00    -0.07  -0.01   0.03     0.02   0.00  -0.01
  40   1    -0.00   0.00  -0.00    -0.06   0.01   0.02     0.01  -0.00  -0.00
  41   1    -0.05  -0.01  -0.04    -0.05  -0.06   0.00     0.01   0.02   0.00
  42   1    -0.06   0.05  -0.06    -0.05  -0.02  -0.02     0.01   0.00   0.01
  43   1    -0.12   0.03   0.01    -0.02  -0.02   0.01     0.02   0.00  -0.00
  44   1    -0.05   0.02   0.06    -0.04   0.04   0.02     0.01  -0.01  -0.01
  45   1     0.16   0.04   0.01    -0.21   0.03  -0.01     0.05  -0.01   0.00
  46   1    -0.19  -0.05   0.17     0.21   0.13  -0.20    -0.04  -0.03   0.04
  47   1    -0.17   0.14  -0.17     0.19  -0.17   0.17    -0.04   0.03  -0.03
                     19                     20                     21
                        a                      a                      a 
 Frequencies --   263.8646               289.0865               326.2908
 Red. masses --     5.7407                 9.1580                 8.4873
 Frc consts  --     0.0000                 0.0000                 0.0000
 IR Inten    --     0.1286                 0.0369                 0.0930
 Raman Activ --     0.0000                 0.0000                 0.0000
 Depolar     --     0.0000                 0.0000                 0.0000
 Atom AN      X      Y      Z        X      Y      Z        X      Y      Z
   1   6    -0.01   0.06   0.04    -0.07   0.30   0.13     0.05   0.06   0.08
   2   6    -0.05   0.00  -0.04    -0.19   0.09  -0.09    -0.10  -0.14  -0.17
   3   6    -0.02   0.01  -0.05    -0.08   0.01  -0.06    -0.05  -0.15  -0.13
   4   6    -0.02   0.01   0.03     0.04   0.07   0.06     0.11   0.06   0.13
   5   6    -0.05  -0.07   0.15     0.13  -0.05   0.14     0.15   0.06   0.17
   6   6     0.15   0.04  -0.16     0.04  -0.26  -0.17     0.16   0.06  -0.12
   7   6     0.15   0.09  -0.08     0.10  -0.28   0.02     0.13   0.06  -0.07
   8   6    -0.00  -0.04   0.04     0.26  -0.13   0.03    -0.11  -0.08   0.06
   9   6     0.03  -0.19   0.07     0.14   0.12  -0.07    -0.16  -0.07   0.07
  10   6     0.05  -0.15   0.05     0.09   0.12  -0.06    -0.08   0.03   0.00
  11   6    -0.04   0.12   0.03     0.10  -0.04   0.00    -0.16   0.20  -0.08
  12   6     0.02   0.19  -0.06    -0.13  -0.19   0.08    -0.17   0.18  -0.01
  13   6     0.01  -0.01  -0.21    -0.22  -0.08   0.00    -0.07   0.05   0.21
  14   6    -0.24  -0.09   0.23    -0.09   0.12   0.01     0.03  -0.07  -0.21
  15   6     0.02   0.05  -0.04    -0.10   0.14  -0.00     0.22  -0.24   0.03
  16   1     0.03   0.01   0.02     0.06   0.05   0.07     0.09  -0.02   0.06
  17   1    -0.01   0.03   0.02    -0.04   0.14   0.06    -0.00   0.07   0.04
  18   1    -0.01   0.03   0.01    -0.04   0.14   0.05    -0.00   0.07   0.04
  19   1    -0.01  -0.00  -0.01    -0.05   0.02  -0.02    -0.02  -0.06  -0.05
  20   1    -0.01  -0.01  -0.01    -0.05   0.02  -0.03    -0.02  -0.06  -0.05
  21   1     0.01  -0.00  -0.02    -0.01  -0.02  -0.02     0.01  -0.08  -0.05
  22   1    -0.01   0.00  -0.03    -0.01  -0.02  -0.02    -0.00  -0.08  -0.05
  23   1    -0.01  -0.01  -0.01     0.00   0.04   0.01     0.02   0.05   0.04
  24   1     0.00   0.03   0.02     0.01   0.05   0.03     0.02   0.05   0.05
  25   1     0.02  -0.07   0.13     0.04  -0.01   0.06     0.06   0.00   0.08
  26   1    -0.12  -0.03   0.04     0.01  -0.01   0.04    -0.01   0.03   0.05
  27   1     0.06  -0.06  -0.06    -0.01  -0.19  -0.08     0.06  -0.05  -0.05
  28   1     0.05   0.04  -0.10    -0.03  -0.00  -0.15     0.03   0.05  -0.09
  29   1     0.08   0.03  -0.02     0.06  -0.06   0.01     0.07   0.01  -0.02
  30   1     0.05   0.02  -0.01    -0.01  -0.08   0.03     0.05   0.01  -0.02
  31   1    -0.03   0.01   0.02     0.11  -0.03   0.01    -0.06  -0.01   0.02
  32   1    -0.03  -0.01   0.02     0.12  -0.06   0.02    -0.05  -0.02   0.02
  33   1     0.02  -0.05   0.01     0.03   0.04  -0.02    -0.06  -0.02   0.02
  34   1     0.02  -0.06   0.02     0.02   0.03  -0.02    -0.06  -0.01   0.02
  35   1     0.05  -0.04   0.00     0.01   0.04  -0.02    -0.00   0.00   0.00
  36   1     0.03  -0.06   0.01     0.01   0.04  -0.02     0.00   0.00  -0.00
  37   1    -0.03   0.06   0.01     0.06  -0.02  -0.00    -0.06   0.04  -0.02
  38   1    -0.04   0.03   0.03     0.06  -0.02   0.00    -0.06   0.07  -0.03
  39   1    -0.02   0.04   0.03    -0.06  -0.05   0.02    -0.04   0.06  -0.03
  40   1     0.04   0.09  -0.01    -0.04  -0.05   0.02    -0.10   0.03  -0.01
  41   1     0.03  -0.12  -0.08    -0.09  -0.05  -0.00    -0.02   0.15   0.08
  42   1     0.03   0.04  -0.16    -0.10  -0.00  -0.03     0.02  -0.05   0.18
  43   1    -0.22  -0.07   0.05    -0.00   0.04   0.00     0.11  -0.01  -0.05
  44   1    -0.03  -0.04   0.22    -0.04   0.06  -0.02    -0.02   0.01  -0.15
  45   1    -0.28   0.11  -0.01     0.00   0.05   0.00     0.12  -0.15  -0.00
  46   1     0.19   0.15  -0.27    -0.05   0.02   0.02     0.07  -0.02   0.11
  47   1     0.16  -0.18   0.15    -0.05   0.06  -0.03     0.07  -0.08   0.00
                     22                     23                     24
                        a                      a                      a 
 Frequencies --   355.8360               389.8146               430.7517
 Red. masses --     8.8802                 9.0863                 8.9016
 Frc consts  --     0.0000                 0.0000                 0.0000
 IR Inten    --     0.0805                 0.1896                 0.0694
 Raman Activ --     0.0000                 0.0000                 0.0000
 Depolar     --     0.0000                 0.0000                 0.0000
 Atom AN      X      Y      Z        X      Y      Z        X      Y      Z
   1   6    -0.09  -0.01  -0.07    -0.13   0.24   0.04    -0.13   0.26   0.06
   2   6     0.11   0.24   0.22    -0.11   0.18   0.03    -0.15   0.12  -0.04
   3   6     0.03   0.23   0.16     0.10   0.02   0.09     0.19  -0.10   0.08
   4   6    -0.21  -0.13  -0.18     0.08  -0.14  -0.07     0.16  -0.24  -0.03
   5   6    -0.16  -0.23  -0.13     0.13  -0.19  -0.13     0.06  -0.20  -0.13
   6   6     0.19   0.06  -0.04     0.01  -0.28   0.07     0.16  -0.02   0.00
   7   6     0.24  -0.04  -0.01    -0.07  -0.03   0.02     0.04   0.15  -0.05
   8   6     0.09  -0.17   0.05     0.13   0.18  -0.09    -0.24  -0.02   0.05
   9   6     0.04  -0.09   0.03     0.12   0.10  -0.06    -0.26  -0.03   0.06
  10   6     0.11   0.03  -0.03    -0.20  -0.16   0.09    -0.08   0.11  -0.03
  11   6     0.01   0.16  -0.08    -0.23  -0.09   0.08    -0.01   0.05  -0.03
  12   6    -0.20   0.03   0.03     0.07   0.18  -0.04    -0.01  -0.05  -0.03
  13   6    -0.19  -0.02   0.13     0.08   0.23  -0.02     0.10  -0.22  -0.01
  14   6    -0.07   0.02  -0.12    -0.14  -0.08  -0.08     0.28   0.00   0.13
  15   6     0.08  -0.07   0.02     0.10  -0.18   0.02    -0.07   0.13  -0.02
  16   1    -0.12   0.05  -0.07    -0.01   0.06   0.02     0.03   0.04   0.05
  17   1    -0.00  -0.07  -0.04    -0.04   0.09   0.02    -0.05   0.12   0.03
  18   1    -0.01  -0.07  -0.04    -0.04   0.09   0.02    -0.05   0.12   0.03
  19   1     0.02   0.09   0.07    -0.04   0.07   0.02    -0.05   0.06   0.00
  20   1     0.02   0.09   0.07    -0.04   0.07   0.01    -0.05   0.06  -0.00
  21   1    -0.00   0.11   0.06     0.02   0.00   0.02     0.06  -0.05   0.02
  22   1    -0.01   0.12   0.05     0.03  -0.00   0.03     0.06  -0.05   0.01
  23   1    -0.04  -0.08  -0.06     0.03  -0.05  -0.01     0.06  -0.09  -0.01
  24   1    -0.04  -0.06  -0.06     0.03  -0.07  -0.03     0.05  -0.11  -0.02
  25   1    -0.00  -0.15   0.02     0.01  -0.02  -0.11     0.02  -0.07  -0.04
  26   1    -0.11  -0.10  -0.05     0.13  -0.06  -0.04     0.03  -0.06  -0.04
  27   1     0.06   0.07  -0.00    -0.00  -0.06   0.02     0.07   0.05   0.01
  28   1     0.10  -0.03   0.03     0.02  -0.09   0.03     0.10  -0.05   0.05
  29   1     0.10  -0.02  -0.00    -0.06   0.00   0.01     0.02   0.04  -0.01
  30   1     0.10  -0.02  -0.00    -0.07   0.00   0.01     0.03   0.03  -0.01
  31   1     0.02  -0.05   0.01     0.06   0.05  -0.03    -0.10   0.00   0.02
  32   1     0.02  -0.04   0.01     0.05   0.04  -0.02    -0.10   0.01   0.01
  33   1    -0.01  -0.02   0.01     0.08   0.02  -0.02    -0.10   0.00   0.02
  34   1    -0.00  -0.02   0.01     0.07   0.01  -0.02    -0.10   0.00   0.02
  35   1     0.05   0.00  -0.00    -0.09  -0.03   0.02    -0.02   0.03  -0.01
  36   1     0.06   0.01  -0.01    -0.09  -0.04   0.03    -0.01   0.03  -0.01
  37   1     0.01   0.04  -0.02    -0.10  -0.02   0.02     0.00   0.02  -0.01
  38   1     0.01   0.05  -0.02    -0.11  -0.01   0.02     0.01   0.01  -0.00
  39   1    -0.07   0.02  -0.00     0.07   0.04  -0.01    -0.04  -0.00  -0.00
  40   1    -0.10   0.01   0.01     0.05   0.04  -0.01    -0.02  -0.01  -0.01
  41   1    -0.07   0.06   0.04     0.04   0.14   0.01     0.04  -0.16  -0.02
  42   1    -0.05  -0.03   0.09     0.07   0.02   0.07     0.00  -0.01  -0.09
  43   1     0.05   0.01  -0.03    -0.09  -0.03  -0.03     0.13   0.01   0.04
  44   1    -0.05   0.04  -0.09    -0.01  -0.05   0.03     0.06   0.01  -0.02
  45   1     0.06  -0.06  -0.00     0.04  -0.10  -0.00    -0.05   0.10   0.00
  46   1     0.03   0.01   0.06     0.08   0.03   0.05    -0.08  -0.06  -0.08
  47   1     0.03  -0.03  -0.00     0.07  -0.11   0.01    -0.07   0.12  -0.00
                     25                     26                     27
                        a                      a                      a 
 Frequencies --   466.4016               492.8790               533.3897
 Red. masses --     9.2297                 8.4799                 8.7096
 Frc consts  --     0.0000                 0.0000                 0.0000
 IR Inten    --     0.2073                 1.0561                 0.1731
 Raman Activ --     0.0000                 0.0000                 0.0000
 Depolar     --     0.0000                 0.0000                 0.0000
 Atom AN      X      Y      Z        X      Y      Z        X      Y      Z
   1   6     0.05  -0.12  -0.03     0.03  -0.08  -0.02     0.02  -0.05  -0.02
   2   6     0.10   0.01   0.09     0.07   0.01   0.06     0.08   0.06   0.10
   3   6    -0.15   0.14  -0.03    -0.11   0.10  -0.03    -0.15   0.15  -0.03
   4   6    -0.16   0.12  -0.04    -0.08   0.12  -0.03    -0.10   0.11  -0.07
   5   6     0.12  -0.03   0.09     0.13  -0.01   0.06     0.35  -0.15   0.10
   6   6     0.20  -0.02  -0.09    -0.03  -0.21   0.04     0.15  -0.33   0.03
   7   6     0.20  -0.16  -0.00    -0.09  -0.00  -0.01    -0.12   0.18  -0.09
   8   6     0.04  -0.18   0.06     0.11   0.17  -0.09    -0.28   0.12   0.00
   9   6    -0.20   0.26  -0.07     0.19  -0.10   0.01    -0.18  -0.12   0.08
  10   6    -0.38   0.15  -0.00    -0.02  -0.22   0.10     0.13   0.07  -0.05
  11   6    -0.23  -0.16   0.10    -0.22   0.22  -0.07     0.21  -0.02  -0.02
  12   6     0.11   0.03  -0.04    -0.23   0.19  -0.09     0.08  -0.12   0.05
  13   6     0.19   0.02  -0.07     0.01  -0.28   0.08    -0.04   0.07  -0.02
  14   6     0.15  -0.05   0.07     0.30  -0.03   0.11    -0.12   0.03  -0.05
  15   6    -0.01   0.00  -0.01    -0.01   0.09  -0.02    -0.01  -0.01   0.01
  16   1    -0.05  -0.00  -0.04    -0.03   0.00  -0.03    -0.05   0.02  -0.03
  17   1     0.03  -0.07  -0.02     0.02  -0.05  -0.02     0.02  -0.05  -0.02
  18   1     0.03  -0.08  -0.02     0.02  -0.05  -0.01     0.02  -0.06  -0.02
  19   1     0.03  -0.01   0.02     0.02  -0.01   0.01     0.02   0.01   0.02
  20   1     0.03  -0.01   0.02     0.02  -0.01   0.01     0.02   0.01   0.02
  21   1    -0.05   0.07   0.00    -0.04   0.05  -0.00    -0.06   0.08   0.00
  22   1    -0.05   0.07   0.00    -0.04   0.05   0.00    -0.05   0.07   0.01
  23   1    -0.05   0.05  -0.00    -0.04   0.06   0.00    -0.05   0.09  -0.00
  24   1    -0.05   0.06  -0.00    -0.03   0.06   0.00    -0.04   0.08  -0.00
  25   1     0.06  -0.06   0.05     0.01   0.03  -0.05     0.07  -0.01  -0.09
  26   1    -0.01  -0.02   0.02     0.11  -0.01   0.02     0.22  -0.06   0.03
  27   1     0.06  -0.07  -0.04    -0.01  -0.12  -0.00     0.08  -0.21  -0.02
  28   1     0.04   0.03  -0.07    -0.03  -0.02  -0.05     0.05  -0.03  -0.10
  29   1     0.10  -0.05  -0.00    -0.06   0.01   0.00    -0.08   0.05  -0.02
  30   1     0.08  -0.05   0.00    -0.07   0.01   0.00    -0.08   0.06  -0.02
  31   1     0.05  -0.05   0.02     0.03   0.05  -0.02    -0.13   0.06   0.01
  32   1     0.04  -0.06   0.02     0.03   0.04  -0.02    -0.13   0.04   0.01
  33   1    -0.09   0.08  -0.01     0.10  -0.04  -0.00    -0.07  -0.03   0.02
  34   1    -0.09   0.08  -0.02     0.11  -0.04  -0.00    -0.07  -0.02   0.02
  35   1    -0.17   0.06   0.00     0.02  -0.07   0.02     0.06   0.01  -0.01
  36   1    -0.17   0.06   0.00     0.02  -0.06   0.03     0.06   0.01  -0.02
  37   1    -0.08  -0.04   0.03    -0.12   0.08  -0.02     0.09  -0.02  -0.01
  38   1    -0.07  -0.04   0.03    -0.11   0.07  -0.00     0.09  -0.01  -0.01
  39   1     0.06  -0.00  -0.01    -0.13   0.07  -0.03     0.03  -0.04   0.01
  40   1     0.07  -0.00  -0.01    -0.12   0.06  -0.03     0.04  -0.03   0.02
  41   1     0.08  -0.03  -0.02     0.03  -0.17   0.01    -0.03   0.06   0.00
  42   1     0.06   0.02  -0.05     0.00  -0.04  -0.07    -0.02   0.01   0.03
  43   1     0.02  -0.02   0.02     0.21   0.00   0.04    -0.07   0.01  -0.02
  44   1     0.06  -0.04   0.04     0.04   0.04  -0.09    -0.02  -0.00   0.03
  45   1    -0.02   0.03   0.00    -0.03   0.09   0.00     0.01  -0.03  -0.00
  46   1    -0.02  -0.04  -0.04    -0.06  -0.07  -0.08     0.02   0.03   0.03
  47   1    -0.02   0.03   0.00    -0.05   0.11  -0.00     0.02  -0.03   0.00
                     28                     29                     30
                        a                      a                      a 
 Frequencies --   765.1064               768.0581               770.9903
 Red. masses --     1.8854                 1.6927                 1.8189
 Frc consts  --     0.0000                 0.0000                 0.0000
 IR Inten    --    13.2754                11.5763                 5.5673
 Raman Activ --     0.0000                 0.0000                 0.0000
 Depolar     --     0.0000                 0.0000                 0.0000
 Atom AN      X      Y      Z        X      Y      Z        X      Y      Z
   1   6     0.01  -0.00   0.00     0.00   0.00  -0.00    -0.00  -0.01   0.00
   2   6     0.03   0.02  -0.02     0.01   0.01  -0.01    -0.04  -0.03   0.05
   3   6     0.01   0.05  -0.07     0.01   0.01  -0.02    -0.06  -0.04   0.08
   4   6     0.08   0.08  -0.05     0.02   0.02  -0.02    -0.05  -0.03   0.08
   5   6     0.10   0.02  -0.05     0.02   0.00  -0.01    -0.03  -0.01   0.02
   6   6     0.01  -0.08  -0.08     0.00  -0.01  -0.01    -0.00  -0.01  -0.02
   7   6    -0.06  -0.06  -0.09    -0.01  -0.01   0.00     0.00  -0.02  -0.08
   8   6    -0.03  -0.00  -0.09    -0.00   0.02   0.03    -0.01  -0.05  -0.09
   9   6    -0.01  -0.02  -0.04     0.01   0.03   0.07    -0.01  -0.03  -0.07
  10   6     0.00  -0.01  -0.01     0.02   0.04   0.10     0.00  -0.00  -0.02
  11   6     0.01   0.01   0.01     0.03   0.04   0.12     0.01   0.01   0.05
  12   6     0.01   0.01   0.01     0.03   0.06   0.10     0.03   0.05   0.07
  13   6    -0.00   0.01   0.01    -0.00   0.05   0.06    -0.00   0.05   0.06
  14   6    -0.01  -0.00   0.00    -0.05  -0.00   0.02    -0.05  -0.01   0.02
  15   6    -0.00  -0.00  -0.00    -0.01  -0.03  -0.02    -0.01  -0.03  -0.01
  16   1    -0.01  -0.00   0.00    -0.00  -0.00   0.00     0.01   0.01  -0.02
  17   1     0.02  -0.04   0.03     0.01  -0.01   0.01    -0.04   0.06  -0.05
  18   1    -0.04   0.00   0.00    -0.02   0.00   0.00     0.08  -0.03  -0.01
  19   1     0.04   0.00   0.14     0.01   0.00   0.04    -0.06  -0.00  -0.20
  20   1    -0.12  -0.07  -0.03    -0.04  -0.02  -0.01     0.19   0.10   0.04
  21   1    -0.25  -0.05  -0.03    -0.07  -0.02  -0.01     0.26   0.09   0.04
  22   1     0.09  -0.05   0.22     0.02  -0.01   0.06    -0.10   0.04  -0.26
  23   1     0.10  -0.01   0.29     0.02  -0.01   0.07    -0.09   0.05  -0.21
  24   1    -0.28  -0.08  -0.04    -0.07  -0.02  -0.01     0.23   0.06   0.04
  25   1     0.06   0.02   0.21     0.01   0.00   0.05    -0.03  -0.01  -0.12
  26   1    -0.17  -0.09  -0.05    -0.04  -0.02  -0.01     0.09   0.08   0.03
  27   1     0.09   0.18   0.03     0.00   0.01   0.00     0.06   0.07   0.01
  28   1    -0.07  -0.12   0.18    -0.00  -0.01   0.01    -0.03  -0.04   0.08
  29   1     0.07   0.29   0.05     0.01  -0.03  -0.01     0.04   0.20   0.03
  30   1    -0.06  -0.18   0.26    -0.02   0.01  -0.02     0.01  -0.12   0.16
  31   1     0.04   0.26   0.05    -0.06  -0.10  -0.02     0.08   0.25   0.05
  32   1    -0.01  -0.14   0.21     0.04   0.06  -0.10    -0.03  -0.15   0.21
  33   1    -0.04  -0.07   0.13    -0.00   0.14  -0.19    -0.06  -0.10   0.17
  34   1     0.07   0.13   0.02    -0.03  -0.23  -0.04     0.08   0.19   0.03
  35   1     0.02  -0.03   0.04     0.05   0.18  -0.27     0.04  -0.04   0.04
  36   1    -0.00   0.05   0.01    -0.11  -0.31  -0.05    -0.04   0.06   0.01
  37   1     0.01  -0.01  -0.00    -0.09  -0.35  -0.05     0.01  -0.13  -0.01
  38   1    -0.01   0.01  -0.01     0.04   0.19  -0.30    -0.02   0.07  -0.10
  39   1     0.01   0.02  -0.03     0.03   0.17  -0.27     0.05   0.11  -0.18
  40   1    -0.01  -0.03  -0.00    -0.05  -0.31  -0.04    -0.05  -0.20  -0.02
  41   1    -0.01  -0.02  -0.00    -0.08  -0.16  -0.01    -0.06  -0.14  -0.01
  42   1     0.01   0.01  -0.02     0.07   0.08  -0.16     0.05   0.07  -0.13
  43   1     0.01   0.00   0.00     0.06   0.01   0.01     0.06   0.02   0.01
  44   1    -0.00  -0.00  -0.01    -0.02  -0.01  -0.07    -0.02  -0.01  -0.07
  45   1     0.00   0.00  -0.00     0.02   0.01  -0.00     0.02   0.01  -0.00
  46   1     0.00   0.00   0.00     0.02   0.03   0.00     0.02   0.03   0.00
  47   1     0.00  -0.01  -0.01     0.01  -0.05  -0.04     0.01  -0.05  -0.04
                     31                     32                     33
                        a                      a                      a 
 Frequencies --   778.8905               791.9603               803.5000
 Red. masses --     2.3086                 2.4752                 2.6615
 Frc consts  --     0.0000                 0.0000                 0.0000
 IR Inten    --     1.7988                 1.4599                 3.2600
 Raman Activ --     0.0000                 0.0000                 0.0000
 Depolar     --     0.0000                 0.0000                 0.0000
 Atom AN      X      Y      Z        X      Y      Z        X      Y      Z
   1   6     0.00   0.01  -0.01     0.02   0.01  -0.03    -0.02  -0.00   0.01
   2   6     0.05   0.03  -0.07     0.09   0.06  -0.13    -0.04  -0.03   0.06
   3   6     0.07   0.02  -0.04     0.05   0.02  -0.04     0.02  -0.01   0.01
   4   6    -0.02  -0.04  -0.04    -0.08  -0.06   0.09     0.03   0.00  -0.09
   5   6    -0.06  -0.01   0.03    -0.14  -0.03   0.10     0.03   0.02  -0.03
   6   6    -0.00   0.08   0.09    -0.01   0.03   0.03     0.00   0.06   0.09
   7   6     0.04   0.05   0.10     0.05   0.02  -0.07    -0.00   0.02   0.10
   8   6     0.01  -0.02   0.01     0.01  -0.06  -0.07    -0.00  -0.01  -0.05
   9   6    -0.01  -0.03  -0.11     0.01  -0.01  -0.01    -0.01  -0.06  -0.10
  10   6    -0.01  -0.04  -0.11     0.00   0.03   0.06    -0.00  -0.01   0.00
  11   6     0.01  -0.03  -0.00    -0.01   0.04   0.06    -0.01   0.09   0.09
  12   6     0.05   0.06   0.08    -0.04  -0.03  -0.01    -0.08  -0.03   0.09
  13   6    -0.00   0.08   0.10     0.00  -0.05  -0.07     0.01  -0.03  -0.08
  14   6    -0.09  -0.01   0.04     0.09   0.02  -0.05     0.19   0.05  -0.12
  15   6    -0.02  -0.04  -0.02     0.03   0.02   0.00     0.06   0.02  -0.03
  16   1    -0.01  -0.02   0.02    -0.03  -0.03   0.05     0.02   0.01  -0.02
  17   1     0.04  -0.06   0.05     0.09  -0.14   0.10    -0.05   0.07  -0.05
  18   1    -0.09   0.04   0.01    -0.18   0.08   0.02     0.08  -0.03  -0.01
  19   1     0.06  -0.01   0.19     0.12  -0.04   0.29    -0.06   0.03  -0.12
  20   1    -0.18  -0.08  -0.04    -0.30  -0.10  -0.06     0.13   0.03   0.03
  21   1    -0.14  -0.09  -0.03    -0.06  -0.14  -0.05    -0.01   0.05   0.02
  22   1     0.06   0.00   0.17     0.01   0.08   0.14     0.02  -0.05  -0.02
  23   1     0.03  -0.07  -0.00    -0.05  -0.06  -0.24     0.05  -0.01   0.12
  24   1    -0.04   0.01  -0.01     0.18   0.13   0.07    -0.12  -0.08  -0.05
  25   1    -0.03  -0.00  -0.07    -0.09  -0.01  -0.26     0.03   0.00   0.10
  26   1     0.07  -0.00   0.01     0.22   0.13   0.07    -0.07  -0.08  -0.04
  27   1    -0.10  -0.18  -0.02     0.04  -0.03  -0.00    -0.10  -0.14  -0.01
  28   1     0.06   0.12  -0.17     0.00   0.02  -0.01     0.04   0.10  -0.14
  29   1    -0.09  -0.20  -0.03     0.03   0.11   0.01    -0.11  -0.13  -0.01
  30   1     0.08   0.12  -0.19     0.06  -0.07   0.07     0.06   0.08  -0.12
  31   1     0.08  -0.02  -0.00     0.04   0.14   0.02     0.10   0.06   0.00
  32   1    -0.07   0.02   0.01     0.00  -0.10   0.12    -0.08  -0.03   0.07
  33   1     0.01  -0.14   0.19    -0.06  -0.00   0.03    -0.03  -0.11   0.15
  34   1     0.02   0.23   0.03     0.06   0.01   0.00     0.08   0.17   0.02
  35   1     0.01  -0.14   0.19     0.04   0.07  -0.11     0.09  -0.03  -0.00
  36   1     0.03   0.24   0.03    -0.06  -0.11  -0.01    -0.07   0.02   0.00
  37   1     0.09  -0.00   0.00    -0.07  -0.10  -0.01    -0.03  -0.18  -0.02
  38   1    -0.07  -0.00   0.03     0.04   0.06  -0.10    -0.00   0.13  -0.16
  39   1     0.10   0.10  -0.18    -0.08  -0.01   0.04    -0.11   0.07  -0.07
  40   1    -0.08  -0.19  -0.02     0.04   0.02   0.01    -0.01  -0.12   0.00
  41   1    -0.07  -0.20  -0.01     0.02   0.12   0.00    -0.05   0.11  -0.01
  42   1     0.07   0.11  -0.19    -0.03  -0.06   0.10    -0.02  -0.05   0.07
  43   1     0.12   0.04   0.02    -0.13  -0.05  -0.03    -0.27  -0.14  -0.07
  44   1    -0.04  -0.03  -0.14     0.05   0.02   0.15     0.10   0.05   0.33
  45   1     0.05   0.04   0.00    -0.05  -0.06  -0.01    -0.10  -0.19  -0.04
  46   1     0.04   0.05   0.00    -0.03  -0.05   0.00    -0.07  -0.09   0.02
  47   1     0.02  -0.10  -0.08    -0.02   0.10   0.09    -0.04   0.20   0.20
                     34                     35                     36
                        a                      a                      a 
 Frequencies --   824.2181               860.1736               878.0720
 Red. masses --     2.9418                 3.3564                 3.5549
 Frc consts  --     0.0000                 0.0000                 0.0000
 IR Inten    --     2.8975                 1.8067                 1.8349
 Raman Activ --     0.0000                 0.0000                 0.0000
 Depolar     --     0.0000                 0.0000                 0.0000
 Atom AN      X      Y      Z        X      Y      Z        X      Y      Z
   1   6     0.02   0.00  -0.01    -0.05  -0.04   0.05     0.03   0.05  -0.06
   2   6     0.03   0.03  -0.04    -0.07  -0.06   0.07     0.05   0.04  -0.04
   3   6    -0.04   0.01   0.01     0.13   0.06  -0.10    -0.07  -0.09   0.11
   4   6    -0.00   0.02   0.09     0.00   0.00  -0.08    -0.03  -0.06  -0.07
   5   6     0.01  -0.01  -0.02    -0.16  -0.03   0.14     0.16   0.05  -0.07
   6   6    -0.00  -0.10  -0.13    -0.03   0.06   0.11     0.02   0.13   0.12
   7   6    -0.01  -0.02  -0.04     0.06   0.03  -0.12    -0.08  -0.05   0.04
   8   6     0.02   0.06   0.12     0.01  -0.08  -0.06    -0.05  -0.03  -0.15
   9   6     0.01   0.01   0.07     0.03   0.04   0.11     0.02   0.03   0.07
  10   6    -0.02  -0.04  -0.13     0.01   0.03   0.03     0.04   0.03   0.10
  11   6    -0.03  -0.01  -0.08    -0.03  -0.06  -0.11    -0.01  -0.06  -0.12
  12   6    -0.05   0.00   0.15    -0.03  -0.01   0.01    -0.03  -0.02  -0.02
  13   6     0.00   0.10   0.08    -0.00   0.11   0.10    -0.01   0.12   0.13
  14   6     0.14   0.06  -0.09     0.05   0.03  -0.01     0.04   0.04   0.00
  15   6     0.04  -0.04  -0.08     0.00  -0.05  -0.06    -0.00  -0.05  -0.07
  16   1    -0.02  -0.01   0.02     0.07   0.03  -0.06    -0.05  -0.03   0.06
  17   1     0.04  -0.06   0.03    -0.12   0.18  -0.09     0.09  -0.14   0.08
  18   1    -0.06   0.02   0.01     0.20  -0.09  -0.02    -0.17   0.09   0.01
  19   1     0.04  -0.03   0.07    -0.11   0.13  -0.11     0.08  -0.11   0.06
  20   1    -0.08  -0.01  -0.01     0.18  -0.06   0.00    -0.13   0.09   0.01
  21   1     0.04  -0.02  -0.01    -0.21   0.00  -0.02     0.18   0.03   0.04
  22   1    -0.04   0.04  -0.02     0.13  -0.09   0.17    -0.09   0.04  -0.15
  23   1    -0.04   0.05  -0.05     0.09  -0.18   0.01    -0.05   0.09   0.02
  24   1     0.08   0.04   0.03    -0.13   0.09   0.00     0.04  -0.15  -0.06
  25   1     0.01  -0.00  -0.00    -0.11   0.04  -0.20     0.10  -0.04   0.17
  26   1    -0.02   0.05   0.01     0.21   0.03   0.05    -0.12  -0.12  -0.06
  27   1     0.09   0.18   0.01     0.04  -0.14  -0.01    -0.12  -0.13  -0.01
  28   1    -0.04  -0.13   0.17    -0.01   0.08  -0.09     0.00   0.14  -0.14
  29   1     0.12   0.03  -0.00    -0.00   0.13   0.00    -0.17   0.03   0.02
  30   1    -0.13  -0.01   0.06     0.12  -0.08   0.06     0.09  -0.04  -0.01
  31   1    -0.10  -0.18  -0.02    -0.05   0.11   0.02     0.02   0.18   0.01
  32   1     0.06   0.12  -0.16     0.08  -0.10   0.07     0.01  -0.12   0.13
  33   1     0.11   0.03  -0.08    -0.03   0.10  -0.11    -0.09   0.09  -0.06
  34   1    -0.12  -0.07   0.00     0.01  -0.15  -0.01     0.10  -0.12  -0.01
  35   1    -0.07  -0.10   0.15    -0.09   0.06  -0.04    -0.07   0.10  -0.09
  36   1     0.11   0.17   0.01     0.08  -0.07  -0.01     0.07  -0.15  -0.01
  37   1     0.13   0.09   0.00     0.03   0.15   0.01    -0.02   0.16   0.01
  38   1    -0.10  -0.04   0.10    -0.00  -0.10   0.12     0.05  -0.11   0.12
  39   1     0.06   0.08  -0.14     0.10  -0.03  -0.01     0.12  -0.06   0.03
  40   1    -0.15  -0.16   0.00    -0.11   0.02   0.01    -0.12   0.07   0.01
  41   1    -0.15  -0.13  -0.01    -0.07  -0.14   0.00    -0.06  -0.16   0.01
  42   1     0.04   0.10  -0.15     0.01   0.10  -0.13    -0.00   0.12  -0.15
  43   1    -0.19  -0.16  -0.07    -0.03  -0.08  -0.02    -0.01  -0.09  -0.02
  44   1     0.08   0.03   0.26     0.03   0.01   0.07     0.02   0.01   0.06
  45   1    -0.07  -0.22  -0.05    -0.01  -0.11  -0.03    -0.01  -0.13  -0.04
  46   1    -0.05  -0.06   0.05    -0.01  -0.01   0.03    -0.01  -0.00   0.04
  47   1    -0.02   0.13   0.16    -0.00   0.02   0.05     0.00   0.01   0.05
                     37                     38                     39
                        a                      a                      a 
 Frequencies --   927.1385               930.4390               940.1422
 Red. masses --     6.3638                 5.0514                 6.1991
 Frc consts  --     0.0000                 0.0000                 0.0000
 IR Inten    --     0.4992                 1.2729                 3.3417
 Raman Activ --     0.0000                 0.0000                 0.0000
 Depolar     --     0.0000                 0.0000                 0.0000
 Atom AN      X      Y      Z        X      Y      Z        X      Y      Z
   1   6    -0.00   0.02  -0.03     0.01   0.01  -0.03    -0.08   0.31   0.17
   2   6     0.01  -0.01   0.00    -0.00  -0.01  -0.00     0.19   0.11   0.19
   3   6     0.02  -0.05   0.04     0.02  -0.03   0.06    -0.14  -0.23  -0.31
   4   6    -0.04  -0.06  -0.12    -0.03  -0.03  -0.10     0.07  -0.18   0.03
   5   6     0.06   0.03   0.07     0.03   0.03   0.05     0.11  -0.01   0.05
   6   6    -0.00   0.14   0.10    -0.02   0.09   0.10    -0.03   0.15  -0.04
   7   6    -0.05  -0.07  -0.10    -0.03  -0.02  -0.10    -0.08  -0.04   0.03
   8   6    -0.01  -0.01  -0.00     0.01  -0.01   0.00    -0.02   0.00  -0.00
   9   6     0.01   0.09   0.10     0.05   0.01   0.10     0.02   0.03  -0.00
  10   6    -0.07  -0.11  -0.09     0.02  -0.00  -0.12     0.01  -0.02  -0.00
  11   6     0.03   0.02  -0.01    -0.04   0.01   0.02     0.00  -0.00  -0.00
  12   6     0.14   0.10   0.07    -0.12  -0.03   0.13    -0.01   0.01   0.01
  13   6     0.12  -0.37  -0.00    -0.11   0.23  -0.23    -0.01   0.01  -0.02
  14   6    -0.19  -0.06  -0.18     0.18  -0.01   0.14     0.01  -0.00   0.01
  15   6    -0.04   0.30   0.09     0.09  -0.27   0.06     0.01  -0.02   0.01
  16   1     0.00  -0.01   0.02     0.01  -0.03   0.03    -0.42   0.32  -0.18
  17   1     0.02  -0.02   0.02     0.02  -0.03   0.03     0.03  -0.13  -0.11
  18   1    -0.05   0.04   0.00    -0.06   0.05   0.01     0.11  -0.23  -0.06
  19   1     0.02  -0.03  -0.01     0.01  -0.04  -0.01     0.07  -0.03   0.04
  20   1    -0.02   0.05   0.02    -0.02   0.06   0.02     0.11  -0.15  -0.00
  21   1     0.03   0.03   0.02     0.04   0.04   0.03    -0.05  -0.16  -0.11
  22   1    -0.00  -0.02  -0.04    -0.00  -0.02  -0.04    -0.02  -0.07  -0.03
  23   1     0.00  -0.03   0.00     0.01  -0.02   0.02    -0.01  -0.02  -0.06
  24   1    -0.03  -0.06  -0.04    -0.04  -0.06  -0.04     0.06   0.01   0.02
  25   1     0.02  -0.01   0.01     0.00   0.02   0.01     0.05  -0.05   0.03
  26   1     0.05  -0.07  -0.00     0.04  -0.07  -0.01    -0.01   0.05   0.03
  27   1     0.01  -0.12  -0.01     0.01  -0.10  -0.01    -0.04   0.04  -0.01
  28   1    -0.07   0.13  -0.10    -0.05   0.10  -0.08    -0.04   0.05  -0.01
  29   1    -0.05   0.13   0.01    -0.04   0.12   0.01    -0.02  -0.00   0.01
  30   1     0.07  -0.11   0.08     0.05  -0.08   0.06    -0.00  -0.02   0.01
  31   1    -0.13   0.04   0.01    -0.12   0.03   0.01    -0.00   0.00   0.00
  32   1     0.16  -0.05  -0.01     0.12  -0.04  -0.01     0.02  -0.01   0.00
  33   1     0.09   0.07  -0.11     0.09   0.04  -0.08     0.02   0.01  -0.01
  34   1    -0.10  -0.10  -0.00    -0.09  -0.08   0.00     0.01  -0.01  -0.00
  35   1    -0.12  -0.08   0.11    -0.04  -0.05   0.08    -0.00  -0.01   0.01
  36   1     0.08   0.10   0.01     0.10   0.10  -0.01     0.01   0.00   0.00
  37   1     0.13  -0.03  -0.01     0.13  -0.06  -0.00     0.01  -0.00  -0.00
  38   1    -0.16   0.05  -0.00    -0.10   0.04  -0.01    -0.01   0.00   0.00
  39   1    -0.06   0.12  -0.10    -0.09   0.06  -0.05    -0.01   0.01  -0.01
  40   1     0.06  -0.13  -0.01     0.04  -0.13   0.01     0.00  -0.01   0.00
  41   1     0.04   0.05   0.02    -0.09   0.21  -0.04    -0.01   0.02  -0.00
  42   1     0.14  -0.19   0.14    -0.06   0.01   0.06    -0.00  -0.00   0.01
  43   1    -0.05  -0.03  -0.05    -0.03   0.22   0.07    -0.00   0.02   0.00
  44   1    -0.07   0.03  -0.04     0.08  -0.08   0.02     0.00  -0.00   0.00
  45   1     0.02  -0.02   0.01    -0.03   0.28   0.06    -0.00   0.02   0.01
  46   1     0.03   0.19   0.14    -0.04  -0.27  -0.27    -0.00  -0.02  -0.02
  47   1     0.02   0.04   0.06    -0.05  -0.02  -0.14    -0.00   0.00  -0.01
                     40                     41                     42
                        a                      a                      a 
 Frequencies --   958.1769               976.6308              1005.0546
 Red. masses --     4.7764                 5.1344                 4.4334
 Frc consts  --     0.0000                 0.0000                 0.0000
 IR Inten    --     1.0593                 0.3299                 0.1757
 Raman Activ --     0.0000                 0.0000                 0.0000
 Depolar     --     0.0000                 0.0000                 0.0000
 Atom AN      X      Y      Z        X      Y      Z        X      Y      Z
   1   6     0.08   0.16  -0.04     0.03  -0.02   0.05     0.00   0.03  -0.08
   2   6     0.00  -0.01   0.08    -0.03   0.02  -0.03    -0.01  -0.04   0.08
   3   6    -0.13  -0.11  -0.00    -0.08   0.07  -0.03     0.07  -0.03  -0.01
   4   6     0.19   0.13  -0.06     0.11   0.13   0.20    -0.06  -0.08  -0.14
   5   6    -0.27  -0.00   0.03    -0.15  -0.02  -0.20     0.13  -0.06   0.19
   6   6    -0.09  -0.19   0.08     0.04  -0.22   0.00     0.00   0.18  -0.17
   7   6     0.19   0.16  -0.10     0.12   0.08   0.10    -0.13  -0.09   0.11
   8   6     0.08  -0.07   0.04     0.02  -0.04  -0.15    -0.07   0.04   0.02
   9   6    -0.00  -0.05  -0.00    -0.03  -0.02   0.10     0.01   0.04  -0.09
  10   6    -0.02   0.06  -0.01    -0.04   0.04   0.03     0.01  -0.03   0.12
  11   6    -0.03  -0.01   0.02    -0.03  -0.01  -0.14    -0.00   0.02  -0.12
  12   6    -0.00  -0.01  -0.02     0.01   0.01   0.16    -0.03  -0.03   0.10
  13   6     0.02  -0.00   0.02     0.07  -0.09  -0.09     0.08  -0.04  -0.03
  14   6    -0.01   0.00  -0.00    -0.01  -0.06  -0.11     0.02  -0.05  -0.12
  15   6    -0.01   0.02  -0.01     0.01   0.08   0.13    -0.00   0.07   0.12
  16   1    -0.21   0.06   0.01    -0.03   0.03  -0.03     0.02  -0.04   0.05
  17   1     0.16  -0.25   0.06     0.00  -0.01  -0.03     0.04  -0.05   0.05
  18   1    -0.18   0.04  -0.01     0.06  -0.06  -0.01    -0.12   0.10   0.01
  19   1     0.09  -0.26  -0.11    -0.01   0.02   0.01     0.01  -0.09  -0.07
  20   1    -0.01   0.18   0.07     0.00  -0.08  -0.03     0.01   0.17   0.07
  21   1     0.02   0.17   0.05     0.00  -0.06  -0.03    -0.09   0.18   0.05
  22   1     0.02  -0.24  -0.18    -0.02   0.04   0.01     0.08  -0.15  -0.02
  23   1     0.12  -0.05   0.17     0.00   0.08   0.04     0.05  -0.16  -0.04
  24   1    -0.17  -0.00  -0.02     0.06   0.03   0.05    -0.12   0.14   0.01
  25   1    -0.18   0.21  -0.10    -0.05   0.04   0.01     0.06  -0.13  -0.07
  26   1     0.12  -0.05  -0.00    -0.11   0.05  -0.04     0.09   0.10   0.08
  27   1     0.08  -0.07   0.01    -0.13   0.03   0.02     0.10   0.12  -0.03
  28   1     0.04  -0.07   0.02     0.21  -0.14   0.04    -0.13   0.03   0.05
  29   1     0.10   0.03  -0.03    -0.10  -0.08  -0.00     0.13  -0.12   0.00
  30   1     0.06   0.04  -0.03     0.09   0.08  -0.10    -0.16   0.04   0.00
  31   1    -0.00  -0.03   0.00     0.10   0.12  -0.00     0.18  -0.07  -0.02
  32   1    -0.01   0.01  -0.01    -0.09  -0.07   0.10    -0.17   0.06   0.00
  33   1    -0.01  -0.02   0.02    -0.18   0.08  -0.03    -0.11   0.00   0.04
  34   1    -0.03   0.02   0.01     0.14  -0.13  -0.00     0.18   0.03  -0.02
  35   1     0.01   0.01  -0.01    -0.20   0.08  -0.01    -0.03   0.05  -0.05
  36   1    -0.04   0.02  -0.00     0.18  -0.08  -0.01     0.04  -0.12   0.01
  37   1    -0.03  -0.01   0.00     0.15   0.09  -0.01    -0.02   0.11  -0.01
  38   1     0.02  -0.00  -0.01    -0.13  -0.03   0.09     0.02  -0.05   0.06
  39   1     0.01  -0.02   0.02     0.02   0.07  -0.09     0.08   0.00  -0.04
  40   1     0.01   0.02  -0.00    -0.07  -0.14   0.01    -0.17  -0.04   0.02
  41   1     0.03  -0.03   0.00    -0.13   0.11  -0.01    -0.17   0.06  -0.01
  42   1    -0.00   0.01  -0.01     0.14  -0.10   0.07     0.15  -0.05   0.02
  43   1     0.01  -0.03  -0.00    -0.11   0.13  -0.01    -0.13   0.11  -0.02
  44   1    -0.00   0.00  -0.00     0.03  -0.07   0.01     0.06  -0.10   0.03
  45   1     0.01  -0.04  -0.01     0.00   0.17   0.06     0.01   0.16   0.05
  46   1     0.01   0.03   0.03     0.01  -0.01  -0.06     0.01   0.01  -0.05
  47   1     0.01  -0.01   0.01    -0.01   0.01  -0.05    -0.00  -0.02  -0.05
                     43                     44                     45
                        a                      a                      a 
 Frequencies --  1007.6102              1023.2716              1035.9920
 Red. masses --     6.3042                 4.2028                 2.6658
 Frc consts  --     0.0000                 0.0000                 0.0000
 IR Inten    --     1.7164                 0.7828                 0.4429
 Raman Activ --     0.0000                 0.0000                 0.0000
 Depolar     --     0.0000                 0.0000                 0.0000
 Atom AN      X      Y      Z        X      Y      Z        X      Y      Z
   1   6    -0.03   0.00   0.02    -0.08   0.01   0.03     0.06  -0.02   0.02
   2   6     0.03   0.01  -0.02     0.09   0.01  -0.04    -0.06   0.02  -0.02
   3   6     0.01  -0.03   0.01     0.03  -0.09   0.05    -0.04   0.07  -0.01
   4   6    -0.04  -0.03  -0.03    -0.08  -0.06  -0.13     0.07   0.06   0.11
   5   6     0.00   0.06   0.00     0.00   0.12   0.09    -0.05  -0.05  -0.11
   6   6    -0.04  -0.02   0.07    -0.15  -0.06   0.10     0.09   0.00   0.03
   7   6     0.06   0.01  -0.06     0.11   0.17  -0.13    -0.03  -0.08  -0.02
   8   6     0.12   0.05   0.00     0.06  -0.10   0.10    -0.03   0.05   0.03
   9   6    -0.01  -0.16   0.04     0.04  -0.04  -0.07    -0.05   0.05  -0.04
  10   6    -0.09   0.10  -0.03     0.04   0.09   0.04    -0.00  -0.07   0.05
  11   6    -0.14   0.19  -0.04    -0.01  -0.12  -0.02     0.07  -0.01  -0.01
  12   6    -0.20  -0.31   0.13     0.05   0.12  -0.02     0.04   0.04  -0.04
  13   6     0.30   0.10  -0.06    -0.05  -0.08   0.02    -0.02  -0.05   0.06
  14   6     0.13  -0.01  -0.10    -0.07  -0.07  -0.08    -0.04  -0.06  -0.14
  15   6    -0.20   0.11   0.05     0.10   0.04   0.09     0.08   0.04   0.13
  16   1     0.00   0.01  -0.02     0.02   0.02  -0.02    -0.02   0.01  -0.00
  17   1    -0.03   0.04  -0.02    -0.07   0.09  -0.04     0.03  -0.04   0.00
  18   1     0.04  -0.02  -0.00     0.06  -0.03  -0.00     0.01  -0.03  -0.00
  19   1    -0.00   0.05   0.04     0.00   0.10   0.09    -0.01  -0.03  -0.03
  20   1    -0.00  -0.06  -0.02    -0.01  -0.11  -0.04    -0.00   0.00  -0.01
  21   1     0.04  -0.07  -0.02     0.12  -0.15  -0.03    -0.02   0.02  -0.00
  22   1    -0.03   0.07   0.01    -0.08   0.16   0.01     0.01  -0.03  -0.00
  23   1    -0.04   0.05  -0.00    -0.09   0.15   0.04     0.04  -0.03  -0.00
  24   1     0.03  -0.08  -0.03     0.04  -0.23  -0.10     0.02   0.05   0.04
  25   1    -0.01   0.06   0.04    -0.07   0.22   0.07     0.01  -0.07  -0.02
  26   1    -0.00  -0.06  -0.02     0.08  -0.20  -0.04    -0.05   0.05  -0.01
  27   1     0.01  -0.05   0.01     0.18  -0.10   0.00    -0.10  -0.02   0.00
  28   1    -0.06   0.03  -0.01    -0.19   0.04   0.01     0.13  -0.01  -0.04
  29   1     0.01   0.05  -0.00     0.20   0.03  -0.04    -0.14   0.07   0.02
  30   1    -0.01  -0.01   0.02    -0.11   0.06   0.01     0.13  -0.09   0.02
  31   1    -0.03  -0.01  -0.01     0.08  -0.10   0.00    -0.19   0.03   0.01
  32   1     0.06   0.02  -0.03    -0.11   0.04  -0.02     0.20  -0.03  -0.04
  33   1     0.08  -0.08   0.03    -0.08  -0.02   0.05     0.21  -0.06   0.00
  34   1    -0.05  -0.01   0.02     0.04   0.05  -0.00    -0.22   0.10   0.01
  35   1     0.10  -0.00  -0.02     0.00   0.06  -0.05     0.24  -0.07  -0.01
  36   1    -0.06   0.04  -0.00    -0.06  -0.03  -0.00    -0.25   0.03   0.02
  37   1    -0.08   0.04  -0.01    -0.08   0.06   0.01    -0.24   0.07   0.01
  38   1     0.07   0.03  -0.03     0.06  -0.08   0.05     0.25  -0.07  -0.01
  39   1    -0.04  -0.11   0.07     0.15   0.01  -0.04     0.22  -0.05  -0.01
  40   1    -0.13  -0.02   0.04    -0.11   0.02  -0.01    -0.23   0.09   0.00
  41   1    -0.01   0.01  -0.02    -0.15   0.02   0.01    -0.24   0.00   0.01
  42   1     0.04   0.05  -0.04     0.16  -0.06   0.01     0.20  -0.05  -0.02
  43   1    -0.10   0.04  -0.03    -0.06   0.06  -0.01    -0.12   0.10  -0.02
  44   1     0.20  -0.32   0.04    -0.05   0.07  -0.01    -0.01   0.00   0.02
  45   1     0.12   0.03   0.02    -0.05   0.12   0.04    -0.03   0.17   0.05
  46   1     0.11   0.29   0.13    -0.05  -0.13  -0.09    -0.03  -0.11  -0.10
  47   1     0.08  -0.25  -0.12    -0.04   0.12   0.03    -0.03   0.09  -0.01
                     46                     47                     48
                        a                      a                      a 
 Frequencies --  1050.5995              1068.2022              1079.9710
 Red. masses --    10.3944                 8.3974                 9.7762
 Frc consts  --     0.0000                 0.0000                 0.0000
 IR Inten    --     0.0473                 0.5592                 0.1246
 Raman Activ --     0.0000                 0.0000                 0.0000
 Depolar     --     0.0000                 0.0000                 0.0000
 Atom AN      X      Y      Z        X      Y      Z        X      Y      Z
   1   6    -0.05   0.05  -0.01     0.11  -0.07   0.07     0.29  -0.20   0.10
   2   6     0.06  -0.05   0.01    -0.12   0.09  -0.08    -0.30   0.26  -0.07
   3   6     0.07  -0.07   0.02    -0.09   0.08   0.04    -0.23   0.20  -0.06
   4   6    -0.09  -0.01  -0.07     0.12   0.05   0.05     0.24  -0.21   0.05
   5   6    -0.08   0.16   0.02    -0.10  -0.08  -0.03     0.12  -0.15   0.05
   6   6     0.05  -0.08   0.06     0.04   0.06   0.01    -0.17   0.17  -0.02
   7   6     0.23  -0.23   0.03    -0.03  -0.03  -0.01    -0.05   0.07  -0.04
   8   6     0.12   0.34  -0.14    -0.25  -0.08   0.10     0.16  -0.02   0.00
   9   6    -0.33  -0.08   0.08    -0.01   0.41  -0.17     0.03  -0.19   0.05
  10   6    -0.29  -0.15   0.12     0.04  -0.40   0.16    -0.17   0.14  -0.02
  11   6     0.19   0.29  -0.16     0.21   0.10  -0.07    -0.07   0.14  -0.06
  12   6     0.26  -0.13   0.02    -0.00  -0.01  -0.00     0.16  -0.11   0.03
  13   6    -0.08  -0.05   0.05    -0.01  -0.02   0.02    -0.01  -0.04   0.02
  14   6    -0.05   0.11   0.04     0.10   0.10   0.01    -0.06   0.05   0.02
  15   6     0.02  -0.12  -0.05    -0.09  -0.07  -0.03     0.03  -0.04  -0.02
  16   1    -0.02   0.02  -0.01    -0.03   0.02  -0.02     0.01  -0.03  -0.00
  17   1    -0.02   0.02  -0.01     0.03  -0.05  -0.02     0.10  -0.12   0.01
  18   1    -0.01   0.01  -0.00     0.07  -0.09  -0.00     0.10  -0.12   0.00
  19   1     0.02  -0.01   0.01    -0.03   0.02   0.01    -0.08   0.06  -0.03
  20   1     0.02  -0.02   0.00    -0.04  -0.05  -0.04    -0.08   0.07  -0.02
  21   1     0.03  -0.02   0.00     0.05  -0.07  -0.02    -0.06   0.03  -0.02
  22   1     0.01  -0.01   0.00    -0.05   0.05  -0.02    -0.06   0.03  -0.03
  23   1    -0.02  -0.02  -0.03     0.02   0.05   0.07     0.08  -0.09   0.01
  24   1    -0.01  -0.03  -0.03     0.04  -0.13  -0.03     0.08  -0.10   0.00
  25   1    -0.02   0.04   0.01    -0.07   0.08  -0.04     0.02  -0.02   0.00
  26   1    -0.03   0.03   0.00     0.10  -0.17  -0.05     0.07  -0.07   0.01
  27   1     0.02  -0.05   0.01     0.16  -0.07  -0.02    -0.03   0.03  -0.01
  28   1    -0.09   0.01   0.01     0.03   0.03  -0.03    -0.11   0.07  -0.01
  29   1     0.09  -0.05   0.01     0.14  -0.03  -0.01     0.03   0.03  -0.01
  30   1     0.01  -0.05   0.02     0.03  -0.04   0.02    -0.03   0.02  -0.00
  31   1     0.08   0.07  -0.04     0.03  -0.06   0.01     0.07  -0.04  -0.01
  32   1     0.03   0.10  -0.05    -0.04  -0.02   0.01     0.02   0.01  -0.01
  33   1    -0.04  -0.04   0.03     0.00   0.10  -0.04     0.01  -0.06   0.03
  34   1    -0.02  -0.03   0.02     0.05   0.10  -0.05     0.05  -0.05   0.01
  35   1    -0.03  -0.05   0.03    -0.03  -0.09   0.04    -0.04   0.04  -0.02
  36   1    -0.02  -0.07   0.03     0.01  -0.10   0.04    -0.03   0.02  -0.01
  37   1     0.07   0.08  -0.04     0.02   0.03  -0.02    -0.00   0.05  -0.01
  38   1     0.06   0.07  -0.04    -0.03   0.05  -0.01    -0.00   0.03  -0.01
  39   1     0.06  -0.03   0.00    -0.11   0.03   0.00     0.08  -0.04   0.00
  40   1     0.06  -0.03   0.01    -0.07   0.02   0.00     0.07  -0.04   0.01
  41   1    -0.05  -0.02   0.01    -0.05   0.01   0.01    -0.01  -0.01   0.01
  42   1    -0.09   0.01   0.01    -0.12   0.02   0.00    -0.01  -0.01   0.01
  43   1    -0.02   0.06   0.01    -0.06   0.05   0.00    -0.00   0.02   0.01
  44   1    -0.04   0.09   0.01     0.09  -0.09   0.06    -0.05   0.07  -0.01
  45   1    -0.02  -0.01  -0.01     0.04  -0.01  -0.01    -0.02  -0.01  -0.01
  46   1    -0.02  -0.09  -0.05     0.04   0.08   0.02    -0.02  -0.06  -0.03
  47   1    -0.02   0.01  -0.01     0.03  -0.13  -0.07    -0.01   0.03   0.01
                     49                     50                     51
                        a                      a                      a 
 Frequencies --  1090.1659              1097.1822              1106.6154
 Red. masses --     8.9955                 7.6698                 7.4872
 Frc consts  --     0.0000                 0.0000                 0.0000
 IR Inten    --     0.8710                 1.0633                 0.0322
 Raman Activ --     0.0000                 0.0000                 0.0000
 Depolar     --     0.0000                 0.0000                 0.0000
 Atom AN      X      Y      Z        X      Y      Z        X      Y      Z
   1   6     0.18  -0.07   0.10    -0.14  -0.02  -0.12     0.01   0.02   0.02
   2   6    -0.21   0.12  -0.09     0.16  -0.06   0.10    -0.01  -0.01  -0.02
   3   6    -0.01   0.06   0.03    -0.27   0.14  -0.13     0.08  -0.05   0.04
   4   6    -0.00  -0.05  -0.02     0.22  -0.35  -0.03    -0.07   0.13   0.02
   5   6    -0.08   0.12  -0.00     0.13   0.04   0.13    -0.01  -0.06  -0.04
   6   6     0.09  -0.02   0.07    -0.23  -0.08  -0.00    -0.01   0.01   0.00
   7   6     0.19  -0.30   0.04     0.26   0.04  -0.01     0.03  -0.07   0.01
   8   6    -0.11   0.34  -0.08    -0.09   0.03  -0.03    -0.25  -0.04   0.07
   9   6    -0.12  -0.04   0.03     0.00   0.08  -0.01     0.40  -0.16  -0.01
  10   6     0.13   0.05  -0.04    -0.05  -0.09   0.03    -0.42   0.14   0.00
  11   6     0.04  -0.25   0.10     0.18  -0.06   0.01     0.28   0.04  -0.05
  12   6    -0.29   0.15  -0.03    -0.10   0.09  -0.04    -0.08   0.06  -0.02
  13   6     0.03   0.13  -0.08     0.00   0.02  -0.01     0.05   0.02  -0.00
  14   6     0.01  -0.19  -0.02     0.04  -0.01  -0.01    -0.03   0.04   0.00
  15   6     0.05   0.14   0.06    -0.02   0.01   0.01     0.02  -0.03  -0.02
  16   1    -0.06   0.03  -0.03     0.12  -0.08   0.04    -0.02   0.02  -0.01
  17   1     0.08  -0.11  -0.01    -0.07   0.12   0.03     0.01  -0.01  -0.01
  18   1     0.07  -0.11  -0.01    -0.07   0.13   0.01     0.01  -0.02  -0.00
  19   1    -0.05   0.00  -0.03     0.03   0.01   0.02     0.00  -0.01  -0.00
  20   1    -0.05   0.01  -0.03     0.03   0.01   0.03    -0.00  -0.01  -0.01
  21   1     0.01  -0.04  -0.01    -0.13   0.18   0.01     0.04  -0.05  -0.00
  22   1     0.02  -0.04  -0.01    -0.13   0.18   0.01     0.03  -0.04   0.00
  23   1     0.03  -0.10  -0.04     0.05  -0.10  -0.02    -0.02   0.04   0.01
  24   1     0.03  -0.08  -0.03     0.06  -0.05   0.00    -0.02   0.05   0.01
  25   1    -0.00  -0.01  -0.00    -0.01   0.14   0.09     0.01  -0.05  -0.02
  26   1    -0.02   0.00  -0.01    -0.03   0.14   0.07     0.01  -0.06  -0.02
  27   1     0.05  -0.07   0.00    -0.20   0.09   0.03    -0.02  -0.01  -0.00
  28   1    -0.12   0.05  -0.01    -0.04  -0.06   0.06    -0.01   0.01  -0.01
  29   1     0.12  -0.07   0.01     0.05  -0.03  -0.01     0.06  -0.03   0.00
  30   1     0.01  -0.08   0.04     0.20  -0.00  -0.06     0.04  -0.04   0.01
  31   1    -0.04   0.07  -0.03    -0.10   0.07   0.01    -0.16   0.01   0.02
  32   1    -0.12   0.12  -0.03    -0.03  -0.00   0.01    -0.15   0.01   0.03
  33   1    -0.04  -0.01   0.01     0.04   0.02  -0.02     0.23  -0.08  -0.00
  34   1     0.01  -0.00   0.01    -0.02   0.01  -0.01     0.24  -0.08  -0.01
  35   1     0.04   0.01  -0.01    -0.04  -0.02   0.02    -0.24   0.07   0.01
  36   1     0.08  -0.01  -0.01    -0.06   0.00   0.01    -0.24   0.08   0.01
  37   1     0.10  -0.09   0.02     0.06  -0.03   0.00     0.18  -0.01  -0.02
  38   1     0.06  -0.08   0.03     0.07  -0.02  -0.00     0.18  -0.01  -0.03
  39   1    -0.09   0.04  -0.00    -0.08   0.03  -0.00    -0.07   0.03  -0.00
  40   1    -0.05   0.04  -0.01    -0.07   0.05  -0.01    -0.07   0.04  -0.00
  41   1     0.09   0.01  -0.02     0.00   0.01  -0.00     0.05  -0.01  -0.00
  42   1     0.10   0.01  -0.03     0.00   0.01  -0.01     0.04   0.00  -0.01
  43   1     0.08  -0.11  -0.01    -0.01  -0.00  -0.00    -0.00   0.03   0.00
  44   1    -0.00  -0.06  -0.05     0.03  -0.04   0.01    -0.02   0.02  -0.01
  45   1    -0.01   0.01   0.01     0.01   0.00   0.00    -0.01  -0.01  -0.00
  46   1    -0.00   0.02   0.03     0.01   0.03   0.01    -0.00  -0.02  -0.01
  47   1    -0.00   0.08   0.06     0.01  -0.02  -0.01    -0.01   0.01   0.00
                     52                     53                     54
                        a                      a                      a 
 Frequencies --  1109.8067              1114.5565              1124.3030
 Red. masses --     8.3756                 7.7062                 7.7717
 Frc consts  --     0.0000                 0.0000                 0.0000
 IR Inten    --     0.2724                 1.5939                 0.2261
 Raman Activ --     0.0000                 0.0000                 0.0000
 Depolar     --     0.0000                 0.0000                 0.0000
 Atom AN      X      Y      Z        X      Y      Z        X      Y      Z
   1   6     0.06  -0.06   0.01    -0.17   0.16  -0.03     0.05   0.05   0.05
   2   6    -0.03   0.13   0.06     0.10  -0.35  -0.14    -0.12  -0.08  -0.11
   3   6     0.05  -0.14  -0.05    -0.10   0.35   0.15     0.05   0.16   0.07
   4   6    -0.06   0.05  -0.01     0.20  -0.01   0.10    -0.05  -0.15  -0.07
   5   6     0.06  -0.07   0.01    -0.07  -0.09  -0.04    -0.01   0.26   0.02
   6   6    -0.07   0.04  -0.03     0.12   0.15  -0.02     0.16  -0.13   0.05
   7   6    -0.12   0.21  -0.04    -0.22  -0.04   0.02    -0.07   0.05  -0.02
   8   6     0.36  -0.12  -0.03     0.12   0.01   0.01     0.09  -0.05   0.02
   9   6    -0.26  -0.04   0.07    -0.07  -0.09   0.03     0.02  -0.09   0.02
  10   6    -0.17  -0.15   0.09    -0.10   0.01   0.02     0.02   0.09  -0.03
  11   6     0.38  -0.12   0.00     0.07   0.02  -0.02     0.07  -0.19   0.06
  12   6    -0.22   0.17  -0.06    -0.09  -0.02   0.01    -0.00   0.22  -0.06
  13   6     0.00   0.08  -0.03     0.02   0.10  -0.04     0.06  -0.24   0.08
  14   6     0.04  -0.07  -0.01    -0.04  -0.12  -0.01     0.08   0.34   0.03
  15   6     0.00   0.04   0.02     0.06   0.07   0.03    -0.14  -0.20  -0.11
  16   1     0.03  -0.02   0.01    -0.09   0.06  -0.03    -0.09   0.06  -0.03
  17   1     0.02  -0.01   0.01    -0.05   0.03  -0.03     0.04  -0.08  -0.02
  18   1     0.02  -0.00   0.01    -0.05   0.02  -0.02     0.01  -0.06  -0.01
  19   1    -0.03   0.09   0.03     0.08  -0.24  -0.07    -0.00  -0.10  -0.07
  20   1    -0.03   0.10   0.03     0.08  -0.25  -0.08     0.01  -0.07  -0.04
  21   1     0.01  -0.05  -0.02    -0.02   0.13   0.05    -0.04   0.07   0.03
[...]
  14   6     0.06   0.02   0.03     0.08   0.03   0.07     0.06   0.01   0.09
  15   6    -0.01   0.00  -0.00    -0.01   0.01  -0.01    -0.01   0.01  -0.01
  16   1    -0.00  -0.01  -0.01     0.01   0.03   0.02    -0.01  -0.03  -0.02
  17   1    -0.01  -0.00   0.00     0.02   0.01  -0.01    -0.03  -0.01   0.01
  18   1     0.00   0.00  -0.01    -0.00  -0.01   0.03     0.00   0.02  -0.04
  19   1     0.22   0.10  -0.06    -0.27  -0.13   0.08     0.24   0.12  -0.07
  20   1    -0.01  -0.07   0.24     0.02   0.11  -0.35    -0.01  -0.10   0.34
  21   1     0.01   0.06  -0.19     0.00   0.03  -0.09    -0.01  -0.07   0.22
  22   1    -0.15  -0.07   0.04    -0.03  -0.01   0.01     0.13   0.06  -0.04
  23   1     0.09   0.04  -0.02     0.12   0.06  -0.03    -0.22  -0.11   0.05
  24   1    -0.00  -0.01   0.02    -0.01  -0.01   0.03     0.01   0.02  -0.06
  25   1    -0.31  -0.14   0.08     0.15   0.06  -0.04     0.02   0.01  -0.00
  26   1     0.03   0.10  -0.32    -0.02  -0.06   0.19     0.00   0.01  -0.04
  27   1     0.01  -0.05   0.28    -0.00  -0.00  -0.00    -0.01   0.05  -0.26
  28   1    -0.08  -0.25  -0.17     0.03   0.09   0.06     0.04   0.11   0.08
  29   1     0.00  -0.01   0.04     0.01  -0.04   0.18    -0.00   0.04  -0.17
  30   1     0.02   0.05   0.03    -0.04  -0.12  -0.08     0.02   0.04   0.04
  31   1     0.00  -0.03   0.14    -0.00   0.02  -0.11    -0.00   0.03  -0.12
  32   1    -0.01  -0.03  -0.03     0.06   0.18   0.13     0.01   0.02   0.02
  33   1     0.05   0.16   0.11     0.01   0.04   0.02    -0.05  -0.15  -0.10
  34   1    -0.00   0.01  -0.09    -0.00  -0.02   0.08     0.00  -0.02   0.12
  35   1     0.05   0.17   0.11     0.06   0.19   0.13    -0.04  -0.12  -0.08
  36   1    -0.00   0.01  -0.06    -0.00   0.01  -0.11     0.00  -0.01   0.08
  37   1    -0.00  -0.01   0.02    -0.00  -0.03   0.15    -0.00  -0.02   0.17
  38   1     0.02   0.08   0.05    -0.01  -0.05  -0.04    -0.05  -0.16  -0.10
  39   1     0.00   0.01   0.00     0.01   0.04   0.02     0.05   0.16   0.10
  40   1    -0.00  -0.01   0.07    -0.00   0.00  -0.01    -0.00   0.02  -0.13
  41   1    -0.00  -0.02   0.22    -0.00  -0.01   0.17     0.00   0.01  -0.02
  42   1    -0.04  -0.17  -0.09    -0.05  -0.22  -0.12    -0.03  -0.11  -0.05
  43   1     0.02   0.04  -0.19     0.04   0.07  -0.36     0.04   0.07  -0.39
  44   1    -0.24  -0.11   0.06    -0.33  -0.16   0.09    -0.26  -0.12   0.07
  45   1    -0.00  -0.00   0.01    -0.00  -0.00   0.03    -0.00  -0.01   0.04
  46   1     0.01  -0.01   0.01     0.03  -0.02   0.01     0.03  -0.02   0.01
  47   1     0.02   0.01  -0.01     0.02   0.01  -0.01     0.01   0.01  -0.00
                    124                    125                    126
                        a                      a                      a 
 Frequencies --  2983.0878              2984.5079              2986.6833
 Red. masses --     1.6426                 1.8402                 1.7977
 Frc consts  --     0.0000                 0.0000                 0.0000
 IR Inten    --    58.4976               106.3258               228.4812
 Raman Activ --     0.0000                 0.0000                 0.0000
 Depolar     --     0.0000                 0.0000                 0.0000
 Atom AN      X      Y      Z        X      Y      Z        X      Y      Z
   1   6    -0.01  -0.01  -0.01     0.00   0.00  -0.02    -0.01  -0.01  -0.00
   2   6     0.04   0.00   0.04    -0.00  -0.02   0.06     0.03   0.01   0.02
   3   6     0.03   0.00   0.03    -0.01  -0.03   0.09     0.03   0.01   0.01
   4   6    -0.01  -0.01   0.01    -0.10  -0.07   0.08     0.05   0.02  -0.00
   5   6     0.01   0.00   0.00    -0.01  -0.03   0.11     0.01   0.01  -0.01
   6   6     0.00   0.02  -0.04     0.00  -0.02   0.09    -0.01  -0.01  -0.04
   7   6    -0.02  -0.05  -0.05     0.02   0.03   0.08    -0.03  -0.08  -0.07
   8   6     0.01   0.06  -0.05     0.01   0.04   0.04    -0.00   0.00  -0.07
   9   6     0.01   0.04  -0.02     0.01   0.05   0.01     0.00   0.02  -0.08
  10   6     0.01   0.05   0.01     0.01   0.04  -0.01     0.00   0.03  -0.08
  11   6     0.00  -0.00   0.06     0.01   0.03  -0.02     0.00   0.02  -0.09
  12   6     0.00  -0.01   0.08    -0.01  -0.05  -0.03    -0.02  -0.06  -0.09
  13   6    -0.01  -0.04   0.11    -0.00   0.00  -0.03     0.00   0.00  -0.07
  14   6     0.01  -0.01   0.10    -0.00   0.00  -0.02    -0.01   0.00  -0.05
  15   6    -0.01   0.01  -0.02     0.00  -0.00   0.00     0.01  -0.00   0.01
  16   1     0.00   0.02   0.01     0.00   0.02   0.01     0.00   0.01   0.01
  17   1     0.02   0.01  -0.01    -0.01  -0.00   0.00     0.02   0.01  -0.01
  18   1    -0.00  -0.01   0.03    -0.00  -0.02   0.05    -0.00  -0.00   0.01
  19   1    -0.14  -0.06   0.04     0.00   0.00   0.01    -0.12  -0.06   0.03
  20   1     0.01   0.05  -0.17     0.00   0.06  -0.21     0.01   0.03  -0.09
  21   1     0.01   0.05  -0.15     0.00   0.09  -0.30     0.01   0.02  -0.05
  22   1    -0.11  -0.05   0.03     0.03   0.01   0.00    -0.12  -0.06   0.03
  23   1     0.06   0.03  -0.01     0.38   0.18  -0.08    -0.20  -0.10   0.05
  24   1    -0.00   0.00  -0.01    -0.01   0.05  -0.19     0.01   0.02  -0.05
  25   1    -0.05  -0.02   0.01    -0.01  -0.01   0.02    -0.05  -0.02   0.01
  26   1     0.00   0.01  -0.02     0.02   0.12  -0.41    -0.00  -0.01   0.04
  27   1     0.00  -0.04   0.18    -0.01   0.07  -0.32     0.00  -0.03   0.11
  28   1    -0.02  -0.05  -0.04    -0.00  -0.02   0.00     0.01   0.04   0.02
  29   1    -0.00  -0.02   0.03    -0.00   0.05  -0.17    -0.00  -0.03   0.05
  30   1     0.08   0.22   0.14    -0.06  -0.16  -0.10     0.12   0.33   0.21
  31   1     0.01  -0.06   0.28     0.00   0.02  -0.04     0.00  -0.06   0.23
  32   1    -0.06  -0.16  -0.12    -0.05  -0.14  -0.09     0.01   0.04   0.02
  33   1    -0.04  -0.12  -0.08    -0.05  -0.16  -0.10    -0.01  -0.02  -0.03
  34   1     0.00  -0.02   0.14     0.00  -0.01   0.07     0.00  -0.06   0.32
  35   1    -0.05  -0.18  -0.12    -0.04  -0.13  -0.09    -0.01  -0.03  -0.03
  36   1     0.00  -0.01   0.09     0.00  -0.02   0.10    -0.00  -0.06   0.32
  37   1     0.00   0.04  -0.19    -0.00  -0.02   0.13    -0.00  -0.06   0.35
  38   1    -0.00  -0.02  -0.00    -0.02  -0.07  -0.05    -0.01  -0.02  -0.03
  39   1    -0.01  -0.02  -0.00     0.05   0.18   0.10     0.08   0.27   0.15
  40   1     0.00   0.05  -0.26    -0.00  -0.01   0.00    -0.00  -0.04   0.16
  41   1     0.01   0.04  -0.45    -0.00  -0.01   0.10    -0.01  -0.03   0.26
  42   1     0.02   0.09   0.07    -0.00   0.00  -0.00     0.00   0.01  -0.01
  43   1     0.03   0.07  -0.38    -0.01  -0.01   0.06    -0.02  -0.03   0.19
  44   1    -0.08  -0.04   0.03     0.02   0.01  -0.01     0.04   0.02  -0.02
  45   1    -0.00  -0.01   0.07     0.00   0.00  -0.01     0.00   0.01  -0.05
  46   1     0.03  -0.02   0.01    -0.01   0.01  -0.00    -0.02   0.01  -0.00
  47   1    -0.00   0.00  -0.00    -0.01  -0.01   0.00    -0.01  -0.01   0.01
                    127                    128                    129
                        a                      a                      a 
 Frequencies --  2991.2106              2994.3432              2998.2172
 Red. masses --     1.5680                 1.5866                 1.6221
 Frc consts  --     0.0000                 0.0000                 0.0000
 IR Inten    --   142.2407               121.2198               247.8487
 Raman Activ --     0.0000                 0.0000                 0.0000
 Depolar     --     0.0000                 0.0000                 0.0000
 Atom AN      X      Y      Z        X      Y      Z        X      Y      Z
   1   6     0.01   0.01   0.01    -0.01  -0.01  -0.01     0.01   0.01   0.00
   2   6    -0.04  -0.00  -0.04     0.02   0.00   0.01    -0.03  -0.01  -0.01
   3   6    -0.04  -0.01  -0.04     0.03   0.01   0.01    -0.04  -0.01  -0.00
   4   6    -0.09  -0.02  -0.05     0.07   0.03   0.02    -0.12  -0.05  -0.00
   5   6    -0.02   0.01  -0.05     0.02   0.00   0.01    -0.04  -0.02   0.00
   6   6     0.01   0.03  -0.05     0.00   0.00   0.02    -0.02  -0.05  -0.01
   7   6     0.02   0.09  -0.03     0.01   0.02   0.03    -0.05  -0.14  -0.04
   8   6     0.01   0.05  -0.03    -0.00  -0.02   0.02    -0.02  -0.06  -0.01
   9   6     0.01   0.03  -0.03    -0.01  -0.03   0.02    -0.01  -0.04   0.00
  10   6    -0.00   0.00  -0.02    -0.02  -0.06   0.02    -0.01  -0.03   0.00
  11   6    -0.00  -0.01  -0.02    -0.02  -0.07   0.01    -0.01  -0.03   0.00
  12   6    -0.03  -0.09  -0.03    -0.04  -0.16  -0.02    -0.01  -0.04  -0.01
  13   6    -0.01  -0.02  -0.01    -0.01  -0.05   0.01    -0.00  -0.01   0.00
  14   6    -0.01  -0.00  -0.00    -0.01  -0.01   0.01    -0.00  -0.00   0.00
  15   6     0.01   0.00   0.00     0.02   0.01  -0.01     0.01   0.00  -0.00
  16   1    -0.01  -0.03  -0.02     0.00   0.02   0.01    -0.00  -0.02  -0.01
  17   1    -0.03  -0.01   0.01     0.02   0.01  -0.01    -0.03  -0.02   0.01
  18   1     0.00   0.01  -0.04    -0.00  -0.01   0.01     0.00   0.00  -0.01
  19   1     0.14   0.07  -0.04    -0.08  -0.04   0.02     0.10   0.05  -0.03
  20   1    -0.01  -0.05   0.17     0.00   0.02  -0.07    -0.01  -0.02   0.06
  21   1    -0.01  -0.06   0.18     0.00   0.02  -0.06    -0.01  -0.01   0.04
  22   1     0.15   0.07  -0.05    -0.09  -0.04   0.03     0.13   0.06  -0.03
  23   1     0.32   0.16  -0.09    -0.28  -0.13   0.07     0.44   0.21  -0.11
  24   1    -0.02  -0.09   0.26     0.01   0.04  -0.13    -0.02  -0.04   0.12
  25   1     0.09   0.04  -0.03    -0.08  -0.03   0.02     0.14   0.06  -0.03
  26   1    -0.02  -0.06   0.21     0.01   0.02  -0.07    -0.01  -0.01   0.01
  27   1     0.00  -0.04   0.22    -0.00   0.01  -0.06    -0.00   0.01  -0.06
  28   1    -0.02  -0.06  -0.05    -0.01  -0.02  -0.01     0.05   0.15   0.10
  29   1     0.01  -0.05   0.28    -0.00   0.01  -0.04    -0.01   0.02  -0.19
  30   1    -0.10  -0.27  -0.19    -0.03  -0.09  -0.05     0.17   0.48   0.32
  31   1     0.00  -0.04   0.20    -0.00   0.02  -0.11    -0.00   0.01  -0.09
  32   1    -0.04  -0.12  -0.09     0.02   0.05   0.04     0.06   0.17   0.12
  33   1    -0.03  -0.09  -0.06     0.03   0.09   0.06     0.05   0.14   0.09
  34   1     0.00  -0.03   0.18    -0.00   0.02  -0.13    -0.00   0.02  -0.11
  35   1     0.00   0.00  -0.00     0.06   0.18   0.12     0.03   0.11   0.07
  36   1     0.00  -0.02   0.07    -0.00   0.03  -0.18    -0.00   0.01  -0.08
  37   1    -0.00  -0.01   0.05    -0.00   0.02  -0.16     0.00   0.01  -0.06
  38   1     0.01   0.05   0.03     0.06   0.20   0.13     0.02   0.09   0.05
  39   1     0.09   0.33   0.20     0.16   0.55   0.33     0.04   0.14   0.09
  40   1    -0.00   0.00  -0.08    -0.00   0.02  -0.25    -0.00   0.01  -0.06
  41   1    -0.00  -0.00   0.00     0.00   0.00  -0.11     0.00   0.00  -0.03
  42   1     0.02   0.08   0.04     0.04   0.17   0.09     0.01   0.05   0.03
  43   1    -0.00  -0.00   0.01    -0.00   0.00  -0.03    -0.00   0.00  -0.01
  44   1     0.03   0.01  -0.01     0.06   0.03  -0.01     0.02   0.01  -0.00
  45   1     0.00   0.00  -0.01     0.00  -0.00   0.01     0.00  -0.00   0.00
  46   1    -0.01   0.01  -0.00    -0.01   0.01  -0.00    -0.00   0.00  -0.00
  47   1    -0.03  -0.01   0.01    -0.05  -0.03   0.02    -0.02  -0.01   0.00
                    130                    131                    132
                        a                      a                      a 
 Frequencies --  3030.8288              3031.4240              3032.8280
 Red. masses --     1.9584                 1.9299                 1.9344
 Frc consts  --     0.0000                 0.0000                 0.0000
 IR Inten    --    60.2693                63.2027                62.2550
 Raman Activ --     0.0000                 0.0000                 0.0000
 Depolar     --     0.0000                 0.0000                 0.0000
 Atom AN      X      Y      Z        X      Y      Z        X      Y      Z
   1   6    -0.15  -0.11   0.22     0.01   0.01  -0.01    -0.15  -0.17  -0.18
   2   6    -0.02  -0.02   0.03     0.00   0.00  -0.00    -0.02  -0.01  -0.02
   3   6    -0.01  -0.01   0.01     0.00   0.00  -0.00    -0.01  -0.00  -0.01
   4   6    -0.00  -0.00   0.00     0.00   0.00  -0.00    -0.01  -0.00  -0.00
   5   6    -0.00  -0.00   0.00     0.00   0.00  -0.00    -0.00  -0.00  -0.00
   6   6    -0.00  -0.00   0.00    -0.00   0.00  -0.00    -0.00  -0.00  -0.00
   7   6    -0.00  -0.00   0.00    -0.00  -0.00  -0.00    -0.00  -0.00  -0.00
   8   6    -0.00  -0.00   0.00    -0.00  -0.00  -0.00    -0.00  -0.00  -0.00
   9   6    -0.00  -0.00   0.00    -0.00  -0.00  -0.00    -0.00  -0.00  -0.00
  10   6    -0.00  -0.00   0.00    -0.00  -0.00  -0.00    -0.00  -0.00  -0.00
  11   6    -0.00  -0.00   0.00    -0.00  -0.00  -0.00    -0.00  -0.00  -0.00
  12   6    -0.00  -0.00  -0.00    -0.00  -0.00  -0.01    -0.00  -0.00  -0.00
  13   6    -0.00  -0.00  -0.00    -0.00  -0.00  -0.02    -0.00  -0.00  -0.00
  14   6    -0.00   0.00  -0.00    -0.01   0.00  -0.04    -0.00   0.00  -0.00
  15   6    -0.00   0.00  -0.01    -0.11   0.11  -0.24    -0.00   0.00  -0.00
  16   1    -0.03  -0.05   0.01     0.00  -0.00  -0.00     0.10   0.55   0.40
  17   1     0.56   0.25  -0.11    -0.02  -0.01   0.00     0.45   0.18  -0.14
  18   1    -0.01   0.20  -0.68     0.00  -0.01   0.02    -0.03  -0.15   0.38
  19   1     0.07   0.03  -0.02    -0.00  -0.00   0.00     0.07   0.04  -0.02
  20   1     0.00   0.02  -0.09    -0.00  -0.00   0.00    -0.00  -0.02   0.07
  21   1    -0.00   0.01  -0.03     0.00  -0.00   0.00    -0.00  -0.01   0.05
  22   1     0.02   0.01  -0.00    -0.00  -0.00   0.00     0.04   0.02  -0.01
  23   1     0.01   0.01  -0.00    -0.00  -0.00   0.00     0.02   0.01  -0.01
  24   1    -0.00   0.00  -0.01     0.00  -0.00   0.00    -0.00  -0.00   0.01
  25   1     0.00   0.00  -0.00    -0.00  -0.00   0.00     0.01   0.00  -0.00
  26   1     0.00   0.00  -0.01    -0.00  -0.00   0.00    -0.00  -0.00   0.01
  27   1    -0.00   0.00  -0.00     0.00  -0.00   0.00     0.00  -0.00   0.00
  28   1     0.00   0.00   0.00     0.00   0.00   0.00     0.00   0.00   0.00
  29   1    -0.00   0.00  -0.00     0.00  -0.00   0.00    -0.00  -0.00   0.00
  30   1     0.00   0.00   0.00     0.00   0.00   0.00     0.00   0.00   0.00
  31   1    -0.00   0.00  -0.00    -0.00  -0.00   0.00     0.00  -0.00   0.00
  32   1     0.00   0.00   0.00     0.00   0.00   0.00     0.00   0.00   0.00
  33   1     0.00   0.00   0.00     0.00   0.00   0.00     0.00   0.00   0.00
  34   1     0.00   0.00  -0.00     0.00  -0.00   0.00    -0.00  -0.00   0.00
  35   1     0.00   0.00   0.00     0.00   0.00   0.00     0.00   0.00   0.00
  36   1    -0.00   0.00  -0.00    -0.00  -0.00   0.00    -0.00  -0.00   0.00
  37   1     0.00   0.00  -0.00     0.00  -0.00   0.01    -0.00  -0.00   0.00
  38   1     0.00   0.00   0.00     0.00   0.00   0.00     0.00   0.00   0.00
  39   1     0.00   0.00   0.00     0.01   0.01   0.01     0.00   0.00   0.00
  40   1    -0.00  -0.00   0.00    -0.00  -0.00   0.02    -0.00  -0.00   0.00
  41   1    -0.00  -0.00   0.00    -0.00  -0.01   0.05    -0.00  -0.00   0.00
  42   1     0.00   0.00   0.00     0.00   0.02   0.01     0.00   0.00   0.00
  43   1    -0.00  -0.00   0.00    -0.01  -0.02   0.11    -0.00  -0.00   0.00
  44   1     0.00   0.00  -0.00     0.02   0.01  -0.01     0.00   0.00  -0.00
  45   1    -0.00  -0.00   0.02    -0.04  -0.12   0.77    -0.00  -0.00   0.00
  46   1     0.01  -0.01   0.00     0.42  -0.31   0.11     0.01  -0.00   0.00
  47   1    -0.00   0.00  -0.00     0.01   0.03  -0.04     0.00   0.00  -0.00
                    133                    134                    135
                        a                      a                      a 
 Frequencies --  3034.4234              3038.2361              3047.0321
 Red. masses --     1.7082                 1.2571                 1.5109
 Frc consts  --     0.0000                 0.0000                 0.0000
 IR Inten    --    50.3330                32.4942                37.3717
 Raman Activ --     0.0000                 0.0000                 0.0000
 Depolar     --     0.0000                 0.0000                 0.0000
 Atom AN      X      Y      Z        X      Y      Z        X      Y      Z
   1   6     0.00  -0.00  -0.00    -0.09   0.12   0.01     0.00   0.00   0.00
   2   6    -0.00  -0.00  -0.00    -0.01   0.00  -0.00     0.00   0.00  -0.00
   3   6    -0.00  -0.00  -0.00    -0.00  -0.00  -0.00     0.00   0.00  -0.00
   4   6    -0.00  -0.00  -0.00    -0.00  -0.00   0.00     0.00   0.00  -0.00
   5   6    -0.00  -0.00  -0.00    -0.00  -0.00  -0.00     0.00   0.00  -0.00
   6   6    -0.00  -0.00  -0.00    -0.00  -0.00  -0.00     0.00   0.00   0.00
   7   6     0.00   0.00  -0.00    -0.00  -0.00  -0.00     0.00   0.00   0.00
   8   6     0.00   0.00  -0.00    -0.00  -0.00  -0.00     0.00   0.00   0.00
   9   6     0.00   0.00  -0.00    -0.00  -0.00  -0.00     0.00   0.00   0.00
  10   6     0.00   0.00  -0.00    -0.00  -0.00  -0.00     0.00   0.00   0.00
  11   6     0.00   0.00  -0.00    -0.00   0.00  -0.00     0.00   0.00   0.00
  12   6     0.00   0.01  -0.00    -0.00  -0.00  -0.00     0.00   0.01   0.01
  13   6     0.00   0.00  -0.00     0.00   0.00  -0.00     0.00   0.00   0.00
  14   6     0.02   0.01  -0.01     0.00   0.00  -0.00     0.02   0.01  -0.01
  15   6     0.22  -0.05  -0.10     0.00  -0.00  -0.00     0.15   0.15  -0.04
  16   1     0.00   0.01   0.01    -0.12  -0.52  -0.40    -0.00  -0.00  -0.00
  17   1    -0.00  -0.00   0.00     0.46   0.23  -0.11    -0.00  -0.00   0.00
  18   1     0.00   0.00  -0.00    -0.01  -0.13   0.48     0.00   0.00  -0.00
  19   1     0.00   0.00  -0.00     0.01   0.01  -0.00    -0.00  -0.00   0.00
  20   1    -0.00  -0.00   0.00    -0.00  -0.00   0.01     0.00   0.00  -0.00
  21   1    -0.00  -0.00   0.00    -0.00  -0.00   0.01     0.00   0.00  -0.00
  22   1     0.00   0.00  -0.00     0.01   0.01  -0.00    -0.00  -0.00   0.00
  23   1     0.00   0.00  -0.00     0.00   0.00  -0.00    -0.00  -0.00   0.00
  24   1    -0.00  -0.00   0.00     0.00  -0.00   0.00     0.00   0.00  -0.00
  25   1     0.00   0.00  -0.00     0.00   0.00  -0.00    -0.00  -0.00   0.00
  26   1    -0.00  -0.00   0.00    -0.00  -0.00   0.00     0.00   0.00  -0.00
  27   1    -0.00   0.00   0.00    -0.00   0.00  -0.00     0.00  -0.00   0.00
  28   1     0.00   0.00   0.00     0.00   0.00   0.00    -0.00  -0.00  -0.00
  29   1     0.00  -0.00   0.00     0.00  -0.00   0.00     0.00   0.00   0.00
  30   1    -0.00  -0.00  -0.00     0.00   0.00   0.00    -0.00  -0.00  -0.00
  31   1    -0.00  -0.00   0.00    -0.00   0.00  -0.00     0.00  -0.00   0.00
  32   1    -0.00   0.00  -0.00     0.00   0.00   0.00    -0.00  -0.00  -0.00
  33   1    -0.00  -0.00  -0.00     0.00   0.00   0.00    -0.00  -0.00  -0.00
  34   1     0.00  -0.00   0.00    -0.00  -0.00   0.00     0.00   0.00  -0.00
  35   1    -0.00  -0.00  -0.00     0.00   0.00   0.00    -0.00  -0.01  -0.00
  36   1    -0.00  -0.00   0.00    -0.00   0.00  -0.00    -0.00  -0.00   0.00
  37   1     0.00  -0.00   0.00    -0.00  -0.00   0.00     0.00   0.00  -0.00
  38   1    -0.00  -0.00  -0.00     0.00   0.00   0.00    -0.00  -0.01  -0.00
  39   1    -0.01  -0.02  -0.02     0.00   0.00   0.00    -0.01  -0.05  -0.03
  40   1    -0.00  -0.00   0.02    -0.00   0.00  -0.00    -0.00   0.00   0.01
  41   1     0.00  -0.00   0.01    -0.00  -0.00   0.00     0.00   0.00   0.00
  42   1    -0.00  -0.01  -0.00    -0.00  -0.00  -0.00    -0.00  -0.02  -0.01
  43   1    -0.00  -0.01   0.03     0.00   0.00   0.00     0.00  -0.00   0.01
  44   1    -0.07  -0.03   0.01    -0.00  -0.00   0.00    -0.06  -0.02   0.01
  45   1     0.02  -0.10   0.52     0.00  -0.00   0.00     0.03   0.04  -0.16
  46   1    -0.57   0.44  -0.22    -0.01   0.00  -0.00     0.23  -0.14   0.06
  47   1    -0.23  -0.15   0.06    -0.00  -0.00   0.00    -0.79  -0.42   0.22
