      -----------------------------------------------------------      
     |                   =====================                   |     
     |                           x T B                           |     
     |                   =====================                   |     
     |                         S. Grimme                         |     
     |          Mulliken Center for Theoretical Chemistry        |     
     |                    University of Bonn                     |     
      -----------------------------------------------------------      

   * xtb version 6.6.1 (8d0f1dd) compiled by 'stahn@M-Bot' on 2023-08-01

   xtb is free software: you can redistribute it and/or modify it under
   the terms of the GNU Lesser General Public License as published by
   the Free Software Foundation, either version 3 of the License, or
   (at your option) any later version.
   
   xtb is distributed in the hope that it will be useful,
   but WITHOUT ANY WARRANTY; without even the implied warranty of
   MERCHANTABILITY or FITNESS FOR A PARTICULAR PURPOSE.  See the
   GNU Lesser General Public License for more details.
   
   Cite this work as:
   * C. Bannwarth, E. Caldeweyher, S. Ehlert, A. Hansen, P. Pracht,
     J. Seibert, S. Spicher, S. Grimme, WIREs Comput. Mol. Sci., 2020, 11,
     e01493. DOI: 10.1002/wcms.1493
   
   for GFN2-xTB:
   * C. Bannwarth, S. Ehlert and S. Grimme., J. Chem. Theory Comput., 2019,
     15, 1652-1671. DOI: 10.1021/acs.jctc.8b01176
   for GFN1-xTB:
   * S. Grimme, C. Bannwarth, P. Shushkov, J. Chem. Theory Comput., 2017,
     13, 1989-2009. DOI: 10.1021/acs.jctc.7b00118
   for GFN0-xTB:
   * P. Pracht, E. Caldeweyher, S. Ehlert, S. Grimme, ChemRxiv, 2019, preprint.
     DOI: 10.26434/chemrxiv.8326202.v1
   for GFN-FF:
   * S. Spicher and S. Grimme, Angew. Chem. Int. Ed., 2020, 59, 15665-15673.
     DOI: 10.1002/anie.202004239
   
   for ALPB and GBSA implicit solvation:
   * S. Ehlert, M. Stahn, S. Spicher, S. Grimme, J. Chem. Theory Comput.,
     2021, 17, 4250-4261. DOI: 10.1021/acs.jctc.1c00471
   
   for DFT-D4:
   * E. Caldeweyher, C. Bannwarth and S. Grimme, J. Chem. Phys., 2017,
     147, 034112. DOI: 10.1063/1.4993215
   * E. Caldeweyher, S. Ehlert, A. Hansen, H. Neugebauer, S. Spicher,
     C. Bannwarth and S. Grimme, J. Chem. Phys., 2019, 150, 154122.
     DOI: 10.1063/1.5090222
   * E. Caldeweyher, J.-M. Mewes, S. Ehlert and S. Grimme, Phys. Chem. Chem. Phys.
     2020, 22, 8499-8512. DOI: 10.1039/D0CP00502A
   
   for sTDA-xTB:
   * S. Grimme and C. Bannwarth, J. Chem. Phys., 2016, 145, 054103.
     DOI: 10.1063/1.4959605
   
   in the mass-spec context:
   * V. Asgeirsson, C. Bauer and S. Grimme, Chem. Sci., 2017, 8, 4879.
     DOI: 10.1039/c7sc00601b
   * J. Koopman and S. Grimme, ACS Omega 2019, 4, 12, 15120-15133.
     DOI: 10.1021/acsomega.9b02011
   
   for metadynamics refer to:
   * S. Grimme, J. Chem. Theory Comput., 2019, 155, 2847-2862
     DOI: 10.1021/acs.jctc.9b00143
   
   for SPH calculations refer to:
   * S. Spicher and S. Grimme, J. Chem. Theory Comput., 2021, 17, 1701-1714
     DOI: 10.1021/acs.jctc.0c01306
   
   with help from (in alphabetical order)
   P. Atkinson, C. Bannwarth, F. Bohle, G. Brandenburg, E. Caldeweyher
   M. Checinski, S. Dohm, S. Ehlert, S. Ehrlich, I. Gerasimov, C. Hölzer
   A. Katbashev, J. Koopman, C. Lavigne, S. Lehtola, F. März, M. Müller,
   F. Musil, H. Neugebauer, J. Pisarek, C. Plett, P. Pracht, F. Pultar,
   J. Seibert, P. Shushkov, S. Spicher, M. Stahn, M. Steiner, T. Strunk,
   J. Stückrath, T. Rose, and J. Unsleber
   
 * started run on 2024/04/23 at 12:10:43.818     

           -------------------------------------------------
          |                Calculation Setup                |
           -------------------------------------------------

          program call               : xtb unfolded.xyz --gfn 2 --ohess -P 4
          coordinate file            : unfolded.xyz
          omp threads                :                     4

   ID    Z sym.   atoms
    1    6 C      1-15
    2    1 H      16-47

           -------------------------------------------------
          |                 G F N 2 - x T B                 |
           -------------------------------------------------

        Reference                      10.1021/acs.jctc.8b01176
      * Hamiltonian:
        H0-scaling (s, p, d)           1.850000    2.230000    2.230000
        zeta-weighting                 0.500000
      * Dispersion:
        s8                             2.700000
        a1                             0.520000
        a2                             5.000000
        s9                             5.000000
      * Repulsion:
        kExp                           1.500000    1.000000
        rExp                           1.000000
      * Coulomb:
        alpha                          2.000000
        third order                    shell-resolved
        anisotropic                    true
        a3                             3.000000
        a5                             4.000000
        cn-shift                       1.200000
        cn-exp                         4.000000
        max-rad                        5.000000


          ...................................................
          :                      SETUP                      :
          :.................................................:
          :  # basis functions                  92          :
          :  # atomic orbitals                  92          :
          :  # shells                           62          :
          :  # electrons                        92          :
          :  max. iterations                   250          :
          :  Hamiltonian                  GFN2-xTB          :
          :  restarted?                      false          :
          :  GBSA solvation                  false          :
          :  PC potential                    false          :
          :  electronic temp.          300.0000000     K    :
          :  accuracy                    1.0000000          :
          :  -> integral cutoff          0.2500000E+02      :
          :  -> integral neglect         0.1000000E-07      :
          :  -> SCF convergence          0.1000000E-05 Eh   :
          :  -> wf. convergence          0.1000000E-03 e    :
          :  Broyden damping             0.4000000          :
          ...................................................

 iter      E             dE          RMSdq      gap      omega  full diag
   1    -49.0460813 -0.490461E+02  0.253E+00   11.89       0.0  T
   2    -49.1694289 -0.123348E+00  0.138E+00   11.87       1.0  T
   3    -49.1710540 -0.162512E-02  0.730E-01   11.87       1.0  T
   4    -49.1714011 -0.347098E-03  0.834E-02   11.91       1.0  T
   5    -49.1714089 -0.787045E-05  0.418E-02   11.91       1.0  T
   6    -49.1714121 -0.312564E-05  0.265E-03   11.91       5.5  T
   7    -49.1714121 -0.804344E-07  0.107E-03   11.91      13.7  T
   8    -49.1714121 -0.421300E-08  0.333E-04   11.91      43.9  T
   9    -49.1714121 -0.527002E-09  0.944E-05   11.91     154.4  T

   *** convergence criteria satisfied after 9 iterations ***

         #    Occupation            Energy/Eh            Energy/eV
      -------------------------------------------------------------
         1        2.0000           -0.6222554             -16.9324
       ...           ...                  ...                  ...
        40        2.0000           -0.4213250             -11.4648
        41        2.0000           -0.4206349             -11.4461
        42        2.0000           -0.4173626             -11.3570
        43        2.0000           -0.4161176             -11.3231
        44        2.0000           -0.4135993             -11.2546
        45        2.0000           -0.4113449             -11.1933
        46        2.0000           -0.4094225             -11.1410 (HOMO)
        47                          0.0282747               0.7694 (LUMO)
        48                          0.0515493               1.4027
        49                          0.0796709               2.1680
        50                          0.0909023               2.4736
        51                          0.0987215               2.6863
       ...                                ...                  ...
        92                          0.3115270               8.4771
      -------------------------------------------------------------
                  HL-Gap            0.4376972 Eh           11.9103 eV
             Fermi-level           -0.1905739 Eh           -5.1858 eV

 SCC (total)                   0 d,  0 h,  0 min,  0.042 sec
 SCC setup                      ...        0 min,  0.001 sec (  1.803%)
 Dispersion                     ...        0 min,  0.001 sec (  2.051%)
 classical contributions        ...        0 min,  0.000 sec (  0.590%)
 integral evaluation            ...        0 min,  0.002 sec (  3.998%)
 iterations                     ...        0 min,  0.032 sec ( 77.247%)
 molecular gradient             ...        0 min,  0.006 sec ( 13.402%)
 printout                       ...        0 min,  0.000 sec (  0.828%)

         :::::::::::::::::::::::::::::::::::::::::::::::::::::
         ::                     SUMMARY                     ::
         :::::::::::::::::::::::::::::::::::::::::::::::::::::
         :: total energy             -48.468453869705 Eh    ::
         :: gradient norm              0.034754793938 Eh/a0 ::
         :: HOMO-LUMO gap             11.910347229662 eV    ::
         ::.................................................::
         :: SCC energy               -49.171412149224 Eh    ::
         :: -> isotropic ES            0.007505494170 Eh    ::
         :: -> anisotropic ES          0.015982710829 Eh    ::
         :: -> anisotropic XC          0.028730060364 Eh    ::
         :: -> dispersion             -0.030972793665 Eh    ::
         :: repulsion energy           0.703242084294 Eh    ::
         :: add. restraining           0.000000000000 Eh    ::
         :: total charge               0.000000000000 e     ::
         :::::::::::::::::::::::::::::::::::::::::::::::::::::

      ----------------------------------------------------------- 
     |                   =====================                   |
     |                        A N C O P T                        |
     |                   =====================                   |
     |               Approximate Normal Coordinate               |
     |                Rational Function Optimizer                |
      ----------------------------------------------------------- 

          ...................................................
          :                      SETUP                      :
          :.................................................:
          :   optimization level            normal          :
          :   max. optcycles                   200          :
          :   ANC micro-cycles                  20          :
          :   degrees of freedom               135          :
          :.................................................:
          :   RF solver                   davidson          :
          :   write xtbopt.log                true          :
          :   linear?                        false          :
          :   energy convergence         0.5000000E-05 Eh   :
          :   grad. convergence          0.1000000E-02 Eh/α :
          :   maxmium RF displ.          2.0000000          :
          :   Hlow (freq-cutoff)         0.2000000E-01      :
          :   Hmax (freq-cutoff)         5.0000000          :
          :   S6 in model hess.         70.0000000          :
          ...................................................

generating ANC from model Hessian ...
Using Lindh-Hessian (1995)
 Shifting diagonal of input Hessian by   1.974426419635067E-002
 Lowest  eigenvalues of input Hessian
    0.000000    0.000000    0.000000    0.000000    0.000000    0.000000
    0.020000    0.020250    0.020715    0.021554    0.022151    0.022702
    0.023080    0.023832    0.024065    0.025085    0.025258    0.025778
 Highest eigenvalues
    1.244761    1.255531    1.274131    1.298673    1.322120    1.338065
 

........................................................................
.............................. CYCLE    1 ..............................
........................................................................

 iter      E             dE          RMSdq      gap      omega  full diag
   1    -49.1714121 -0.491714E+02  0.262E-05   11.91       0.0  T
   2    -49.1714121 -0.389377E-11  0.146E-05   11.91    1002.2  T
   3    -49.1714121 -0.781597E-13  0.627E-06   11.91    2326.6  T
     SCC iter.                  ...        0 min,  0.004 sec
     gradient                   ...        0 min,  0.005 sec
 * total energy  :   -48.4684539 Eh     change       -0.1646328E-10 Eh
   gradient norm :     0.0347545 Eh/α   predicted     0.0000000E+00 (-100.00%)
   displ. norm   :     0.1970165 α      lambda       -0.3945459E-02
   maximum displ.:     0.1070077 α      in ANC's #61, #60, #9, ...

........................................................................
.............................. CYCLE    2 ..............................
........................................................................

 iter      E             dE          RMSdq      gap      omega  full diag
   1    -49.1837373 -0.491837E+02  0.129E-01   11.96       0.0  T
   2    -49.1837432 -0.588960E-05  0.738E-02   11.96       1.0  T
   3    -49.1837443 -0.108606E-05  0.354E-03   11.96       4.1  T
   4    -49.1837444 -0.721428E-07  0.132E-03   11.96      11.0  T
   5    -49.1837444 -0.288293E-08  0.683E-04   11.96      21.3  T
   6    -49.1837444 -0.672884E-09  0.451E-05   11.96     323.8  T
     SCC iter.                  ...        0 min,  0.007 sec
     gradient                   ...        0 min,  0.005 sec
 * total energy  :   -48.4710795 Eh     change       -0.2625661E-02 Eh
   gradient norm :     0.0158073 Eh/α   predicted    -0.2049322E-02 ( -21.95%)
   displ. norm   :     0.1254139 α      lambda       -0.8296212E-03
   maximum displ.:     0.0668832 α      in ANC's #9, #61, #60, ...

........................................................................
.............................. CYCLE    3 ..............................
........................................................................

 iter      E             dE          RMSdq      gap      omega  full diag
   1    -49.1927108 -0.491927E+02  0.641E-02   12.00       0.0  T
   2    -49.1927148 -0.400687E-05  0.362E-02   12.00       1.0  T
   3    -49.1927150 -0.194922E-06  0.385E-03   12.00       3.8  T
   4    -49.1927150 -0.449012E-07  0.710E-04   12.00      20.5  T
   5    -49.1927151 -0.285429E-08  0.400E-04   12.00      36.4  T
     SCC iter.                  ...        0 min,  0.007 sec
     gradient                   ...        0 min,  0.005 sec
 * total energy  :   -48.4715424 Eh     change       -0.4629093E-03 Eh
   gradient norm :     0.0023951 Eh/α   predicted    -0.4214331E-03 (  -8.96%)
   displ. norm   :     0.0518199 α      lambda       -0.6166191E-04
   maximum displ.:     0.0382892 α      in ANC's #9, #17, #16, ...

........................................................................
.............................. CYCLE    4 ..............................
........................................................................

 iter      E             dE          RMSdq      gap      omega  full diag
   1    -49.1947758 -0.491948E+02  0.129E-02   12.03       0.0  T
   2    -49.1947760 -0.174092E-06  0.733E-03   12.03       2.0  T
   3    -49.1947760 -0.482562E-08  0.871E-04   12.03      16.8  T
   4    -49.1947760 -0.177882E-08  0.158E-04   12.03      92.0  T
     SCC iter.                  ...        0 min,  0.006 sec
     gradient                   ...        0 min,  0.005 sec
 * total energy  :   -48.4715897 Eh     change       -0.4727345E-04 Eh
   gradient norm :     0.0015923 Eh/α   predicted    -0.3091716E-04 ( -34.60%)
   displ. norm   :     0.1352435 α      lambda       -0.6911207E-04
   maximum displ.:     0.1019722 α      in ANC's #9, #17, #16, ...

........................................................................
.............................. CYCLE    5 ..............................
........................................................................

 iter      E             dE          RMSdq      gap      omega  full diag
   1    -49.1973809 -0.491974E+02  0.280E-02   12.11       0.0  T
   2    -49.1973811 -0.186201E-06  0.163E-02   12.11       1.0  T
   3    -49.1973811 -0.323917E-07  0.794E-04   12.11      18.4  T
   4    -49.1973811 -0.370520E-08  0.365E-04   12.11      39.9  T
     SCC iter.                  ...        0 min,  0.004 sec
     gradient                   ...        0 min,  0.006 sec
 * total energy  :   -48.4716367 Eh     change       -0.4694753E-04 Eh
   gradient norm :     0.0033830 Eh/α   predicted    -0.3483759E-04 ( -25.79%)
   displ. norm   :     0.0125966 α      lambda       -0.1342587E-04
   maximum displ.:     0.0061414 α      in ANC's #21, #23, #3, ...

........................................................................
.............................. CYCLE    6 ..............................
........................................................................

 iter      E             dE          RMSdq      gap      omega  full diag
   1    -49.1966034 -0.491966E+02  0.351E-03   12.11       0.0  T
   2    -49.1966034 -0.592405E-07  0.196E-03   12.11       7.5  T
   3    -49.1966034 -0.728413E-09  0.583E-04   12.11      25.0  T
   4    -49.1966034 -0.271861E-09  0.629E-05   12.11     231.9  T
     SCC iter.                  ...        0 min,  0.004 sec
     gradient                   ...        0 min,  0.005 sec
 * total energy  :   -48.4716474 Eh     change       -0.1070687E-04 Eh
   gradient norm :     0.0016341 Eh/α   predicted    -0.6723872E-05 ( -37.20%)
   displ. norm   :     0.0478393 α      lambda       -0.1521824E-04
   maximum displ.:     0.0235184 α      in ANC's #21, #3, #23, ...

........................................................................
.............................. CYCLE    7 ..............................
........................................................................

 iter      E             dE          RMSdq      gap      omega  full diag
   1    -49.1951625 -0.491952E+02  0.827E-03   12.12       0.0  T
   2    -49.1951628 -0.239484E-06  0.476E-03   12.12       3.1  T
   3    -49.1951628 -0.440582E-08  0.115E-03   12.12      12.6  T
   4    -49.1951628 -0.173145E-08  0.160E-04   12.12      91.3  T
   5    -49.1951628 -0.236263E-09  0.803E-05   12.12     181.6  T
     SCC iter.                  ...        0 min,  0.006 sec
     gradient                   ...        0 min,  0.006 sec
 * total energy  :   -48.4716561 Eh     change       -0.8759453E-05 Eh
   gradient norm :     0.0020380 Eh/α   predicted    -0.7618599E-05 ( -13.02%)
   displ. norm   :     0.0068143 α      lambda       -0.3258517E-05
   maximum displ.:     0.0040235 α      in ANC's #3, #1, #21, ...

........................................................................
.............................. CYCLE    8 ..............................
........................................................................

 iter      E             dE          RMSdq      gap      omega  full diag
   1    -49.1955169 -0.491955E+02  0.149E-03   12.12       0.0  T
   2    -49.1955169 -0.118599E-07  0.830E-04   12.12      17.6  T
   3    -49.1955169 -0.110610E-09  0.262E-04   12.12      55.7  T
     SCC iter.                  ...        0 min,  0.003 sec
     gradient                   ...        0 min,  0.005 sec
 * total energy  :   -48.4716589 Eh     change       -0.2797238E-05 Eh
   gradient norm :     0.0012669 Eh/α   predicted    -0.1629772E-05 ( -41.74%)
   displ. norm   :     0.0520020 α      lambda       -0.8317136E-05
   maximum displ.:     0.0319672 α      in ANC's #3, #1, #21, ...

........................................................................
.............................. CYCLE    9 ..............................
........................................................................

 iter      E             dE          RMSdq      gap      omega  full diag
   1    -49.1966989 -0.491967E+02  0.708E-03   12.11       0.0  T
   2    -49.1966991 -0.153776E-06  0.411E-03   12.11       3.5  T
   3    -49.1966991 -0.207261E-08  0.894E-04   12.11      16.3  T
   4    -49.1966991 -0.873605E-09  0.109E-04   12.11     134.2  T
     SCC iter.                  ...        0 min,  0.004 sec
     gradient                   ...        0 min,  0.006 sec
 * total energy  :   -48.4716643 Eh     change       -0.5401130E-05 Eh
   gradient norm :     0.0015335 Eh/α   predicted    -0.4165179E-05 ( -22.88%)
   displ. norm   :     0.0192655 α      lambda       -0.2266501E-05
   maximum displ.:     0.0128341 α      in ANC's #3, #1, #21, ...

........................................................................
.............................. CYCLE   10 ..............................
........................................................................

 iter      E             dE          RMSdq      gap      omega  full diag
   1    -49.1963615 -0.491964E+02  0.228E-03   12.11       0.0  T
   2    -49.1963615 -0.820418E-08  0.131E-03   12.11      11.1  T
   3    -49.1963615 -0.145533E-09  0.193E-04   12.11      75.8  T
   4    -49.1963615 -0.671463E-10  0.294E-05   12.11     496.7  T
     SCC iter.                  ...        0 min,  0.005 sec
     gradient                   ...        0 min,  0.007 sec
 * total energy  :   -48.4716673 Eh     change       -0.2968977E-05 Eh
   gradient norm :     0.0009132 Eh/α   predicted    -0.1134352E-05 ( -61.79%)
   displ. norm   :     0.1014761 α      lambda       -0.8134968E-05
   maximum displ.:     0.0690241 α      in ANC's #3, #1, #21, ...

   *** GEOMETRY OPTIMIZATION CONVERGED AFTER 10 ITERATIONS ***

------------------------------------------------------------------------
 total energy gain   :        -0.0032134 Eh       -2.0165 kcal/mol
 total RMSD          :         0.0711769 a0        0.0377 Å
 total power (kW/mol):        -0.8436846 (step)  -56.4624 (real)
------------------------------------------------------------------------

 ANCopt (total)                0 d,  0 h,  0 min,  0.149 sec
 optimizer setup                ...        0 min,  0.001 sec (  0.554%)
 model hessian                  ...        0 min,  0.016 sec ( 10.706%)
 ANC generation                 ...        0 min,  0.002 sec (  1.029%)
 coordinate transformation      ...        0 min,  0.000 sec (  0.155%)
 single point calculation       ...        0 min,  0.127 sec ( 85.133%)
 optimization log               ...        0 min,  0.001 sec (  0.987%)
 hessian update                 ...        0 min,  0.000 sec (  0.148%)
 rational function              ...        0 min,  0.001 sec (  0.555%)

================
 final structure:
================
47
 xtb: 6.6.1 (8d0f1dd)
C           -5.91858396742010        5.35574946617185        1.20790645109468
C           -4.82718867255782        4.31724234452930        1.43677989021757
C           -5.02454153825231        3.08091806338933        0.56259327723823
C           -3.92214270663067        2.04720548863167        0.77816870371800
C           -4.10513407082798        0.81959655961282       -0.11187273351567
C           -3.05856548501910       -0.26699298624456        0.13909265470453
C           -1.65348381340778        0.13815650652024       -0.30090684247228
C           -0.63796118858617       -0.97909080856101       -0.07488695903929
C            0.77038067718964       -0.55968174025599       -0.48944846475710
C            1.80277637127578       -1.64875818450920       -0.20968276174498
C            3.21127515997957       -1.21881823357447       -0.61266248680409
C            4.25177604236129       -2.29042586912129       -0.29643086616153
C            5.65691840378854       -1.85547933111076       -0.70736285212706
C            6.74375829558452       -2.84841622397380       -0.29381282074612
C            6.65648987268953       -4.17651087708465       -1.03714724544480
H           -5.75826324801071        6.22651340718232        1.83945638367179
H           -6.89624986606275        4.93854879512978        1.43927846778400
H           -5.92309828442777        5.68046797077835        0.16961635339343
H           -3.85336974148273        4.76110355777283        1.21735990562133
H           -4.82449398060524        4.01875199424819        2.48758952811716
H           -5.03616398648123        3.38136874977661       -0.48784684135506
H           -5.99445826113104        2.63101808919320        0.78754998616166
H           -2.95829966133309        2.51388106786563        0.56887428309121
H           -3.92007285750368        1.73465102722434        1.82512902832874
H           -5.09750332799164        0.39989083861354        0.07092305361105
H           -4.06454132659793        1.12360985324174       -1.16042487180392
H           -3.04625602464499       -0.51486558246997        1.20306764639607
H           -3.34967190710319       -1.16871136571740       -0.40535790798905
H           -1.67046275016868        0.40315660015453       -1.36063132396419
H           -1.33321072225922        1.01934656459839        0.25702394248699
H           -0.63497072364894       -1.25263192320041        0.98292309063310
H           -0.93537826665786       -1.86356812896154       -0.64294501679891
H            1.04959624504669        0.34624034697790        0.05392558973529
H            0.77734889466336       -0.31927029839254       -1.55510424459091
H            1.53011313985123       -2.55517470148286       -0.75513525872279
H            1.79099469030888       -1.88951660927341        0.85598914057384
H            3.23019949262144       -1.00139795124525       -1.68318215721350
H            3.47030980159813       -0.29748606863057       -0.08535268935327
H            3.98187241282057       -3.21023359794992       -0.81747450106966
H            4.23916163257942       -2.49864922007792        0.77614417435630
H            5.68993022411399       -1.71633481803089       -1.79045310687479
H            5.87256193180007       -0.88895140289625       -0.24485666042334
H            6.67507420443129       -3.02943445481622        0.78128943252379
H            7.71963455724698       -2.39810490446055       -0.49085797941779
H            6.68228581639008       -4.01201407039589       -2.11225871959344
H            7.49441019721360       -4.81573538319236       -0.76797492428116
H            5.73774231525807       -4.70195455598287       -0.79060574719391
           -------------------------------------------------
          |                Final Singlepoint                |
           -------------------------------------------------

          ...................................................
          :                      SETUP                      :
          :.................................................:
          :  # basis functions                  92          :
          :  # atomic orbitals                  92          :
          :  # shells                           62          :
          :  # electrons                        92          :
          :  max. iterations                   250          :
          :  Hamiltonian                  GFN2-xTB          :
          :  restarted?                      false          :
          :  GBSA solvation                  false          :
          :  PC potential                    false          :
          :  electronic temp.          300.0000000     K    :
          :  accuracy                    1.0000000          :
          :  -> integral cutoff          0.2500000E+02      :
          :  -> integral neglect         0.1000000E-07      :
          :  -> SCF convergence          0.1000000E-05 Eh   :
          :  -> wf. convergence          0.1000000E-03 e    :
          :  Broyden damping             0.4000000          :
          ...................................................

 iter      E             dE          RMSdq      gap      omega  full diag
   1    -49.1963615 -0.491964E+02  0.157E-05   12.11       0.0  T
   2    -49.1963615 -0.412115E-12  0.903E-06   12.11    1615.7  T
   3    -49.1963615  0.852651E-13  0.136E-06   12.11   10716.0  T

   *** convergence criteria satisfied after 3 iterations ***

         #    Occupation            Energy/Eh            Energy/eV
      -------------------------------------------------------------
         1        2.0000           -0.6232262             -16.9588
       ...           ...                  ...                  ...
        40        2.0000           -0.4220218             -11.4838
        41        2.0000           -0.4215335             -11.4705
        42        2.0000           -0.4180370             -11.3754
        43        2.0000           -0.4176941             -11.3660
        44        2.0000           -0.4153588             -11.3025
        45        2.0000           -0.4115690             -11.1994
        46        2.0000           -0.4078863             -11.0992 (HOMO)
        47                          0.0370452               1.0081 (LUMO)
        48                          0.0600705               1.6346
        49                          0.0885694               2.4101
        50                          0.1014804               2.7614
        51                          0.1076978               2.9306
       ...                                ...                  ...
        92                          0.3289139               8.9502
      -------------------------------------------------------------
                  HL-Gap            0.4449315 Eh           12.1072 eV
             Fermi-level           -0.1854206 Eh           -5.0456 eV

 SCC (total)                   0 d,  0 h,  0 min,  0.011 sec
 SCC setup                      ...        0 min,  0.000 sec (  2.628%)
 Dispersion                     ...        0 min,  0.000 sec (  1.559%)
 classical contributions        ...        0 min,  0.000 sec (  0.389%)
 integral evaluation            ...        0 min,  0.001 sec ( 12.093%)
 iterations                     ...        0 min,  0.003 sec ( 30.917%)
 molecular gradient             ...        0 min,  0.005 sec ( 49.407%)
 printout                       ...        0 min,  0.000 sec (  2.711%)

         :::::::::::::::::::::::::::::::::::::::::::::::::::::
         ::                     SUMMARY                     ::
         :::::::::::::::::::::::::::::::::::::::::::::::::::::
         :: total energy             -48.471667294718 Eh    ::
         :: gradient norm              0.000913279356 Eh/a0 ::
         :: HOMO-LUMO gap             12.107202811620 eV    ::
         ::.................................................::
         :: SCC energy               -49.196361514271 Eh    ::
         :: -> isotropic ES            0.008054868285 Eh    ::
         :: -> anisotropic ES          0.015335556399 Eh    ::
         :: -> anisotropic XC          0.029172441090 Eh    ::
         :: -> dispersion             -0.031091067320 Eh    ::
         :: repulsion energy           0.724986210352 Eh    ::
         :: add. restraining           0.000000000000 Eh    ::
         :: total charge              -0.000000000000 e     ::
         :::::::::::::::::::::::::::::::::::::::::::::::::::::

           ------------------------------------------------- 
          |                Numerical Hessian                |
           ------------------------------------------------- 
step length          :   0.00500
SCC accuracy         :   0.30000
Hessian scale factor :   1.00000
frozen atoms in %    :   0.00000    0
RMS gradient         :   0.00091
estimated CPU  time      0.50 min
estimated wall time      0.13 min

writing file <hessian>.

 projected vibrational frequencies (cm⁻¹)
eigval :       -0.00    -0.00    -0.00     0.00     0.00     0.00
eigval :       11.63    19.46    28.91    42.23    49.41    50.18
eigval :       82.84    91.20   101.01   112.11   118.53   133.66
eigval :      142.99   146.47   160.11   195.97   223.05   233.82
eigval :      263.86   289.09   326.29   355.84   389.81   430.75
eigval :      466.40   492.88   533.39   765.11   768.06   770.99
eigval :      778.89   791.96   803.50   824.22   860.17   878.07
eigval :      927.14   930.44   940.14   958.18   976.63  1005.05
eigval :     1007.61  1023.27  1035.99  1050.60  1068.20  1079.97
eigval :     1090.17  1097.18  1106.62  1109.81  1114.56  1124.30
eigval :     1130.07  1136.04  1142.18  1173.97  1184.51  1212.03
eigval :     1221.04  1225.72  1246.46  1252.55  1258.39  1267.35
eigval :     1272.01  1272.68  1281.88  1284.89  1288.43  1293.57
eigval :     1296.15  1298.84  1306.84  1323.97  1335.68  1353.23
eigval :     1360.87  1366.80  1375.27  1377.82  1378.48  1380.69
eigval :     1415.39  1415.87  1490.47  1490.88  1491.08  1493.30
eigval :     1495.70  1496.12  1497.20  1498.19  1498.89  1499.91
eigval :     1501.63  1502.29  1504.63  1504.69  1507.73  1507.85
eigval :     1510.70  2954.47  2956.13  2956.60  2958.00  2958.45
eigval :     2958.66  2962.19  2963.39  2966.60  2968.47  2972.24
eigval :     2973.67  2974.27  2975.14  2975.77  2976.44  2978.11
eigval :     2979.55  2980.92  2981.34  2983.09  2984.51  2986.68
eigval :     2991.21  2994.34  2998.22  3030.83  3031.42  3032.83
eigval :     3034.42  3038.24  3047.03
           -------------------------------------------------
          |                Property Printout                |
           -------------------------------------------------

    * Orbital Energies and Occupations

         #    Occupation            Energy/Eh            Energy/eV
      -------------------------------------------------------------
         1        2.0000           -0.6232262             -16.9588
       ...           ...                  ...                  ...
        34        2.0000           -0.4385075             -11.9324
        35        2.0000           -0.4355114             -11.8509
        36        2.0000           -0.4332425             -11.7891
        37        2.0000           -0.4296173             -11.6905
        38        2.0000           -0.4278201             -11.6416
        39        2.0000           -0.4237600             -11.5311
        40        2.0000           -0.4220218             -11.4838
        41        2.0000           -0.4215335             -11.4705
        42        2.0000           -0.4180370             -11.3754
        43        2.0000           -0.4176941             -11.3660
        44        2.0000           -0.4153588             -11.3025
        45        2.0000           -0.4115690             -11.1994
        46        2.0000           -0.4078864             -11.0992 (HOMO)
        47                          0.0370452               1.0081 (LUMO)
        48                          0.0600705               1.6346
        49                          0.0885694               2.4101
        50                          0.1014804               2.7614
        51                          0.1076978               2.9306
        52                          0.1112287               3.0267
        53                          0.1132066               3.0805
        54                          0.1177566               3.2043
        55                          0.1200489               3.2667
        56                          0.1289655               3.5093
        57                          0.1355122               3.6875
       ...                                ...                  ...
        92                          0.3289139               8.9502
      -------------------------------------------------------------
                  HL-Gap            0.4449315 Eh           12.1072 eV
             Fermi-level           -0.1854206 Eh           -5.0456 eV

     #   Z          covCN         q      C6AA      α(0)
     1   6 C        3.752    -0.102    22.510     6.766
     2   6 C        3.801    -0.053    21.522     6.605
     3   6 C        3.803    -0.059    21.636     6.622
     4   6 C        3.803    -0.059    21.632     6.622
     5   6 C        3.802    -0.058    21.618     6.620
     6   6 C        3.802    -0.058    21.619     6.620
     7   6 C        3.803    -0.059    21.631     6.621
     8   6 C        3.803    -0.058    21.623     6.620
     9   6 C        3.803    -0.058    21.618     6.619
    10   6 C        3.803    -0.058    21.618     6.619
    11   6 C        3.803    -0.058    21.622     6.620
    12   6 C        3.802    -0.058    21.624     6.620
    13   6 C        3.802    -0.058    21.619     6.620
    14   6 C        3.800    -0.053    21.521     6.605
    15   6 C        3.751    -0.102    22.508     6.766
    16   1 H        0.925     0.032     2.552     2.498
    17   1 H        0.925     0.033     2.543     2.494
    18   1 H        0.925     0.033     2.543     2.494
    19   1 H        0.924     0.028     2.611     2.527
    20   1 H        0.924     0.028     2.610     2.526
    21   1 H        0.924     0.029     2.596     2.520
    22   1 H        0.924     0.029     2.604     2.524
    23   1 H        0.924     0.031     2.574     2.509
    24   1 H        0.924     0.029     2.602     2.523
    25   1 H        0.924     0.028     2.609     2.526
    26   1 H        0.924     0.030     2.592     2.518
    27   1 H        0.924     0.030     2.592     2.518
    28   1 H        0.924     0.028     2.610     2.527
    29   1 H        0.924     0.029     2.597     2.520
    30   1 H        0.924     0.032     2.564     2.504
    31   1 H        0.924     0.029     2.605     2.524
    32   1 H        0.924     0.028     2.615     2.529
    33   1 H        0.924     0.029     2.603     2.523
    34   1 H        0.924     0.029     2.604     2.523
    35   1 H        0.924     0.029     2.607     2.525
    36   1 H        0.924     0.029     2.602     2.523
    37   1 H        0.924     0.028     2.610     2.526
    38   1 H        0.924     0.028     2.615     2.529
    39   1 H        0.924     0.032     2.556     2.500
    40   1 H        0.924     0.029     2.603     2.523
    41   1 H        0.924     0.030     2.586     2.515
    42   1 H        0.924     0.027     2.628     2.535
    43   1 H        0.924     0.029     2.599     2.521
    44   1 H        0.924     0.028     2.620     2.531
    45   1 H        0.925     0.034     2.537     2.491
    46   1 H        0.925     0.031     2.575     2.509
    47   1 H        0.925     0.035     2.521     2.483

 Mol. C6AA /au·bohr⁶  :      14696.692361
 Mol. C8AA /au·bohr⁸  :     307247.515928
 Mol. α(0) /au        :        180.102802


Wiberg/Mayer (AO) data.
largest (>0.10) Wiberg bond orders for each atom

 ---------------------------------------------------------------------------
     #   Z sym  total        # sym  WBO       # sym  WBO       # sym  WBO
 ---------------------------------------------------------------------------
     1   6 C    3.997 --     2 C    1.019    17 H    0.988    18 H    0.988
                            16 H    0.988
     2   6 C    3.998 --     1 C    1.019     3 C    1.008    20 H    0.979
                            19 H    0.979
     3   6 C    3.997 --     2 C    1.008     4 C    1.007    22 H    0.978
                            21 H    0.978
     4   6 C    3.997 --     5 C    1.008     3 C    1.007    24 H    0.977
                            23 H    0.975
     5   6 C    3.997 --     4 C    1.008     6 C    1.006    26 H    0.977
                            25 H    0.977
     6   6 C    3.997 --     7 C    1.008     5 C    1.006    28 H    0.977
                            27 H    0.977
     7   6 C    3.997 --     6 C    1.008     8 C    1.007    29 H    0.978
                            30 H    0.975
     8   6 C    3.997 --     9 C    1.007     7 C    1.007    32 H    0.978
                            31 H    0.977
     9   6 C    3.997 --    10 C    1.007     8 C    1.007    34 H    0.978
                            33 H    0.977
    10   6 C    3.997 --     9 C    1.007    11 C    1.007    35 H    0.978
                            36 H    0.977
    11   6 C    3.997 --    10 C    1.007    12 C    1.007    37 H    0.978
                            38 H    0.977
    12   6 C    3.997 --    13 C    1.008    11 C    1.007    40 H    0.977
                            39 H    0.976
    13   6 C    3.997 --    12 C    1.008    14 C    1.007    41 H    0.977
                            42 H    0.977
    14   6 C    3.998 --    15 C    1.020    13 C    1.007    44 H    0.979
                            43 H    0.978
    15   6 C    3.997 --    14 C    1.020    45 H    0.988    46 H    0.988
                            47 H    0.986
    16   1 H    0.999 --     1 C    0.988
    17   1 H    0.999 --     1 C    0.988
    18   1 H    0.999 --     1 C    0.988
    19   1 H    0.999 --     2 C    0.979
    20   1 H    0.999 --     2 C    0.979
    21   1 H    0.999 --     3 C    0.978
    22   1 H    0.999 --     3 C    0.978
    23   1 H    0.999 --     4 C    0.975
    24   1 H    0.999 --     4 C    0.977
    25   1 H    0.999 --     5 C    0.977
    26   1 H    0.999 --     5 C    0.977
    27   1 H    0.999 --     6 C    0.977
    28   1 H    0.999 --     6 C    0.977
    29   1 H    0.999 --     7 C    0.978
    30   1 H    0.999 --     7 C    0.975
    31   1 H    0.999 --     8 C    0.977
    32   1 H    0.999 --     8 C    0.978
    33   1 H    0.999 --     9 C    0.977
    34   1 H    0.999 --     9 C    0.978
    35   1 H    0.999 --    10 C    0.978
    36   1 H    0.999 --    10 C    0.977
    37   1 H    0.999 --    11 C    0.978
    38   1 H    0.999 --    11 C    0.977
    39   1 H    0.999 --    12 C    0.976
    40   1 H    0.999 --    12 C    0.977
    41   1 H    0.999 --    13 C    0.977
    42   1 H    0.999 --    13 C    0.977
    43   1 H    0.999 --    14 C    0.978
    44   1 H    0.999 --    14 C    0.979
    45   1 H    0.999 --    15 C    0.988
    46   1 H    0.999 --    15 C    0.988
    47   1 H    0.999 --    15 C    0.986
 ---------------------------------------------------------------------------

Topologies differ in total number of bonds
Writing topology from bond orders to xtbtopo.mol

molecular dipole:
                 x           y           z       tot (Debye)
 q only:        0.003      -0.004      -0.004
   full:       -0.000      -0.001      -0.005       0.013
molecular quadrupole (traceless):
                xx          xy          yy          xz          yz          zz
 q only:        0.262      -0.556       0.335      -0.031       0.055      -0.598
  q+dip:       -2.018       1.738      -0.961      -0.115      -0.100       2.979
   full:       -0.895       0.634      -0.364      -0.085      -0.013       1.259

           -------------------------------------------------
          |                Geometry Summary                 |
           -------------------------------------------------

      molecular mass/u    :      212.4151425
   center of mass at/Å    :       -0.0000066       0.0001329       0.0002392
  moments of inertia/u·Å² :        0.2847298E+03   0.5454226E+04   0.5659121E+04
rotational constants/cm⁻¹ :        0.5920572E-01   0.3090747E-02   0.2978843E-02

 * 46 selected distances

     #   Z          #   Z                                           value/Å
     1   6 C        2   6 C                                       1.5238190
     2   6 C        3   6 C                                       1.5269737
     3   6 C        4   6 C                                       1.5265379
     4   6 C        5   6 C                                       1.5273126
     5   6 C        6   6 C                                       1.5293681 (max)
     6   6 C        7   6 C                                       1.5270889
     7   6 C        8   6 C                                       1.5266346
     8   6 C        9   6 C                                       1.5268243
     9   6 C       10   6 C                                       1.5264985
    10   6 C       11   6 C                                       1.5267974
    11   6 C       12   6 C                                       1.5267573
    12   6 C       13   6 C                                       1.5272423
    13   6 C       14   6 C                                       1.5291072
    14   6 C       15   6 C                                       1.5244664
     1   6 C       16   1 H                                       1.0875606
     1   6 C       17   1 H                                       1.0878512
     1   6 C       18   1 H                                       1.0878920
     2   6 C       19   1 H                                       1.0924658
     2   6 C       20   1 H                                       1.0923849
     3   6 C       21   1 H                                       1.0926254
     3   6 C       22   1 H                                       1.0925906
     4   6 C       23   1 H                                       1.0911388
     4   6 C       24   1 H                                       1.0926210
     5   6 C       25   1 H                                       1.0928697
     5   6 C       26   1 H                                       1.0924897
     6   6 C       27   1 H                                       1.0925362
     6   6 C       28   1 H                                       1.0928246
     7   6 C       29   1 H                                       1.0924878
     7   6 C       30   1 H                                       1.0910352
     8   6 C       31   1 H                                       1.0926097
     8   6 C       32   1 H                                       1.0924501
     9   6 C       33   1 H                                       1.0926627
     9   6 C       34   1 H                                       1.0924599
    10   6 C       35   1 H                                       1.0924536
    10   6 C       36   1 H                                       1.0925934
    11   6 C       37   1 H                                       1.0925394
    11   6 C       38   1 H                                       1.0927066
    12   6 C       39   1 H                                       1.0910458
    12   6 C       40   1 H                                       1.0926727
    13   6 C       41   1 H                                       1.0924906
    13   6 C       42   1 H                                       1.0929733
    14   6 C       43   1 H                                       1.0923965
    14   6 C       44   1 H                                       1.0926764
    15   6 C       45   1 H                                       1.0879290
    15   6 C       46   1 H                                       1.0877373
    15   6 C       47   1 H                                       1.0867249 (min)

 * 2 distinct bonds (by element types)

   Z      Z             #   av. dist./Å        max./Å        min./Å
   1 H    6 C          32     1.0915155     1.0929733     1.0867249
   6 C    6 C          14     1.5268163     1.5293681     1.5238190

           -------------------------------------------------
          |               Frequency Printout                |
           -------------------------------------------------
 projected vibrational frequencies (cm⁻¹)
eigval :       -0.00    -0.00    -0.00     0.00     0.00     0.00
eigval :       11.63    19.46    28.91    42.23    49.41    50.18
eigval :       82.84    91.20   101.01   112.11   118.53   133.66
eigval :      142.99   146.47   160.11   195.97   223.05   233.82
eigval :      263.86   289.09   326.29   355.84   389.81   430.75
eigval :      466.40   492.88   533.39   765.11   768.06   770.99
eigval :      778.89   791.96   803.50   824.22   860.17   878.07
eigval :      927.14   930.44   940.14   958.18   976.63  1005.05
eigval :     1007.61  1023.27  1035.99  1050.60  1068.20  1079.97
eigval :     1090.17  1097.18  1106.62  1109.81  1114.56  1124.30
eigval :     1130.07  1136.04  1142.18  1173.97  1184.51  1212.03
eigval :     1221.04  1225.72  1246.46  1252.55  1258.39  1267.35
eigval :     1272.01  1272.68  1281.88  1284.89  1288.43  1293.57
eigval :     1296.15  1298.84  1306.84  1323.97  1335.68  1353.23
eigval :     1360.87  1366.80  1375.27  1377.82  1378.48  1380.69
eigval :     1415.39  1415.87  1490.47  1490.88  1491.08  1493.30
eigval :     1495.70  1496.12  1497.20  1498.19  1498.89  1499.91
eigval :     1501.63  1502.29  1504.63  1504.69  1507.73  1507.85
eigval :     1510.70  2954.47  2956.13  2956.60  2958.00  2958.45
eigval :     2958.66  2962.19  2963.39  2966.60  2968.47  2972.24
eigval :     2973.67  2974.27  2975.14  2975.77  2976.44  2978.11
eigval :     2979.55  2980.92  2981.34  2983.09  2984.51  2986.68
eigval :     2991.21  2994.34  2998.22  3030.83  3031.42  3032.83
eigval :     3034.42  3038.24  3047.03
 reduced masses (amu)
   1:  9.43   2: 10.14   3: 10.25   4: 10.22   5: 10.18   6:  9.55   7:  8.56   8:  9.19
   9:  6.27  10:  8.49  11:  7.62  12:  8.36  13:  7.79  14:  7.58  15:  7.86  16:  6.59
  17:  6.99  18:  8.39  19:  7.17  20:  6.87  21:  8.78  22:  7.83  23:  6.12  24:  2.42
  25:  5.74  26:  9.16  27:  8.49  28:  8.88  29:  9.09  30:  8.90  31:  9.23  32:  8.48
  33:  8.71  34:  1.89  35:  1.69  36:  1.82  37:  2.31  38:  2.48  39:  2.66  40:  2.94
  41:  3.36  42:  3.55  43:  6.36  44:  5.05  45:  6.20  46:  4.78  47:  5.13  48:  4.43
  49:  6.30  50:  4.20  51:  2.67  52: 10.39  53:  8.40  54:  9.78  55:  9.00  56:  7.67
  57:  7.49  58:  8.38  59:  7.71  60:  7.77  61:  8.18  62:  7.52  63:  8.21  64:  6.77
  65:  6.59  66:  5.55  67:  5.06  68:  3.81  69:  4.17  70:  3.60  71:  3.55  72:  3.08
  73:  3.25  74:  1.35  75:  2.17  76:  2.43  77:  1.92  78:  2.45  79:  2.51  80:  2.21
  81:  3.01  82:  3.70  83:  3.82  84:  4.56  85:  4.45  86:  4.72  87:  5.07  88:  5.74
  89:  5.59  90:  5.51  91:  3.22  92:  3.18  93:  1.92  94:  1.90  95:  1.90  96:  1.85
  97:  1.94  98:  1.92  99:  1.97 100:  1.85 101:  2.01 102:  1.99 103:  2.01 104:  1.86
 105:  1.67 106:  1.62 107:  1.66 108:  1.65 109:  1.56 110:  1.88 111:  1.90 112:  1.90
 113:  1.91 114:  1.93 115:  1.93 116:  1.97 117:  1.91 118:  1.92 119:  1.86 120:  1.65
 121:  1.54 122:  1.72 123:  1.50 124:  1.56 125:  1.56 126:  1.73 127:  1.50 128:  1.51
 129:  1.53 130:  1.64 131:  1.84 132:  1.80 133:  1.57 134:  1.59 135:  1.62 136:  1.96
 137:  1.93 138:  1.93 139:  1.71 140:  1.26 141:  1.51
 IR intensities (km·mol⁻¹)
   1:  0.00   2:  0.00   3:  0.00   4:  0.00   5:  0.00   6:  0.00   7:  0.00   8:  0.00
   9:  0.00  10:  0.00  11:  0.00  12:  0.01  13:  0.01  14:  0.01  15:  0.01  16:  0.01
  17:  0.00  18:  0.08  19:  0.01  20:  0.01  21:  0.03  22:  0.01  23:  0.04  24:  0.00
  25:  0.13  26:  0.04  27:  0.09  28:  0.08  29:  0.19  30:  0.07  31:  0.21  32:  1.06
  33:  0.17  34: 13.28  35: 11.58  36:  5.57  37:  1.80  38:  1.46  39:  3.26  40:  2.90
  41:  1.81  42:  1.83  43:  0.50  44:  1.27  45:  3.34  46:  1.06  47:  0.33  48:  0.18
  49:  1.72  50:  0.78  51:  0.44  52:  0.05  53:  0.56  54:  0.12  55:  0.87  56:  1.06
  57:  0.03  58:  0.27  59:  1.59  60:  0.23  61:  0.17  62:  1.75  63:  0.53  64:  0.57
  65:  1.89  66:  0.30  67:  0.05  68:  1.81  69:  0.09  70:  0.01  71:  0.42  72:  0.53
  73:  0.17  74:  0.02  75:  0.05  76:  0.65  77:  0.16  78:  0.06  79:  0.13  80:  0.04
  81:  0.44  82:  0.08  83:  0.01  84:  3.72  85:  0.58  86:  1.71  87:  0.07  88:  0.17
  89:  1.02  90:  0.21  91:  2.16  92:  0.95  93:  0.02  94:  0.88  95:  0.04  96:  0.24
  97:  0.03  98:  0.05  99:  0.16 100:  0.23 101:  0.10 102:  0.14 103:  0.20 104:  0.09
 105:  0.32 106:  2.22 107:  0.94 108:  1.24 109:  2.12 110:  0.22 111:  4.64 112:  2.13
 113:  0.35 114:  9.33 115: 14.36 116:  4.78 117: 18.28 118:  1.70 119:  4.47 120:  0.37
 121:  0.85 122: 38.35 123: 11.02 124:  6.79 125: 13.14 126: 65.84 127: 20.44 128:  6.68
 129:  9.40 130: 58.50 131:106.33 132:228.48 133:142.24 134:121.22 135:247.85 136: 60.27
 137: 63.20 138: 62.26 139: 50.33 140: 32.49 141: 37.37
 Raman intensities (amu)
   1:  0.00   2:  0.00   3:  0.00   4:  0.00   5:  0.00   6:  0.00   7:  0.00   8:  0.00
   9:  0.00  10:  0.00  11:  0.00  12:  0.00  13:  0.00  14:  0.00  15:  0.00  16:  0.00
  17:  0.00  18:  0.00  19:  0.00  20:  0.00  21:  0.00  22:  0.00  23:  0.00  24:  0.00
  25:  0.00  26:  0.00  27:  0.00  28:  0.00  29:  0.00  30:  0.00  31:  0.00  32:  0.00
  33:  0.00  34:  0.00  35:  0.00  36:  0.00  37:  0.00  38:  0.00  39:  0.00  40:  0.00
  41:  0.00  42:  0.00  43:  0.00  44:  0.00  45:  0.00  46:  0.00  47:  0.00  48:  0.00
  49:  0.00  50:  0.00  51:  0.00  52:  0.00  53:  0.00  54:  0.00  55:  0.00  56:  0.00
  57:  0.00  58:  0.00  59:  0.00  60:  0.00  61:  0.00  62:  0.00  63:  0.00  64:  0.00
  65:  0.00  66:  0.00  67:  0.00  68:  0.00  69:  0.00  70:  0.00  71:  0.00  72:  0.00
  73:  0.00  74:  0.00  75:  0.00  76:  0.00  77:  0.00  78:  0.00  79:  0.00  80:  0.00
  81:  0.00  82:  0.00  83:  0.00  84:  0.00  85:  0.00  86:  0.00  87:  0.00  88:  0.00
  89:  0.00  90:  0.00  91:  0.00  92:  0.00  93:  0.00  94:  0.00  95:  0.00  96:  0.00
  97:  0.00  98:  0.00  99:  0.00 100:  0.00 101:  0.00 102:  0.00 103:  0.00 104:  0.00
 105:  0.00 106:  0.00 107:  0.00 108:  0.00 109:  0.00 110:  0.00 111:  0.00 112:  0.00
 113:  0.00 114:  0.00 115:  0.00 116:  0.00 117:  0.00 118:  0.00 119:  0.00 120:  0.00
 121:  0.00 122:  0.00 123:  0.00 124:  0.00 125:  0.00 126:  0.00 127:  0.00 128:  0.00
 129:  0.00 130:  0.00 131:  0.00 132:  0.00 133:  0.00 134:  0.00 135:  0.00 136:  0.00
 137:  0.00 138:  0.00 139:  0.00 140:  0.00 141:  0.00
 output can be read by thermo (or use thermo option).
 writing <g98.out> molden fake output.
 recommended (thermochemical) frequency scaling factor: 1.0
           -------------------------------------------------
          |             Thermodynamic Functions             |
           -------------------------------------------------

Molecule has no symmetry elements
It seems to be the C1 point group
c1  symmetry found (for desy threshold:  0.10E+00) used in thermo

          ...................................................
          :                      SETUP                      :
          :.................................................:
          :  # frequencies                         135      :
          :  # imaginary freq.                       0      :
          :  linear?                             false      :
          :  only rotor calc.                    false      :
          :  symmetry                               c1      :
          :  rotational number                       1      :
          :  scaling factor                  1.0000000      :
          :  rotor cutoff                   50.0000000 cm⁻¹ :
          :  imag. cutoff                  -20.0000000 cm⁻¹ :
          :.................................................:

    mode    ω/cm⁻¹     T·S(HO)/kcal·mol⁻¹    T·S(FR)/kcal·mol⁻¹   T·S(vib)
   ------------------------------------------------------------------------
       1     11.63    -2.29915 (  0.29%)    -1.48854 ( 99.71%)    -1.49091
       2     19.46    -1.99425 (  2.24%)    -1.33607 ( 97.76%)    -1.35082
       3     28.91    -1.75998 ( 10.05%)    -1.21882 ( 89.95%)    -1.27321
       4     42.23    -1.53600 ( 33.72%)    -1.10657 ( 66.28%)    -1.25137
       5     49.41    -1.44326 ( 48.82%)    -1.06002 ( 51.18%)    -1.24712
       6     50.18    -1.43418 ( 50.36%)    -1.05546 ( 49.64%)    -1.24618
       7     82.84    -1.13969 ( 88.28%)    -0.90698 ( 11.72%)    -1.11242
       8     91.20    -1.08351 ( 91.71%)    -0.87848 (  8.29%)    -1.06652
       9    101.01    -1.02407 ( 94.34%)    -0.84823 (  5.66%)    -1.01411
      10    112.11    -0.96362 ( 96.19%)    -0.81733 (  3.81%)    -0.95805
      11    118.53    -0.93148 ( 96.93%)    -0.80084 (  3.07%)    -0.92747
      12    133.66    -0.86244 ( 98.08%)    -0.76524 (  1.92%)    -0.86057
      13    142.99    -0.82392 ( 98.53%)    -0.74526 (  1.47%)    -0.82276
      14    146.47    -0.81023 ( 98.66%)    -0.73813 (  1.34%)    -0.80927
      15    160.11    -0.75984 ( 99.06%)    -0.71177 (  0.94%)    -0.75939
      16    195.97    -0.64718 ( 99.58%)    -0.65190 (  0.42%)    -0.64720
      17    223.05    -0.57669 ( 99.75%)    -0.61356 (  0.25%)    -0.57678
      18    233.82    -0.55139 ( 99.79%)    -0.59958 (  0.21%)    -0.55149
      19    263.86    -0.48779 ( 99.87%)    -0.56377 (  0.13%)    -0.48789
      20    289.09    -0.44105 ( 99.91%)    -0.53673 (  0.09%)    -0.44114
   ------------------------------------------------------------------------

   temp. (K)  partition function   enthalpy   heat capacity  entropy
                                   cal/mol     cal/K/mol   cal/K/mol   J/K/mol
 298.15  VIB  0.980E+10            11165.761     61.535     74.197
         ROT  0.716E+07              888.752      2.981     34.348
         INT  0.702E+17            12054.513     64.516    108.545
         TR   0.300E+28             1481.254      4.968     41.945
         TOT                       13535.7669    69.4837   150.4901   629.6504

       T/K    H(0)-H(T)+PV         H(T)/Eh          T*S/Eh         G(T)/Eh
   ------------------------------------------------------------------------
    298.15    0.215706E-01    0.462448E+00    0.715027E-01    0.390945E+00
   ------------------------------------------------------------------------

         :::::::::::::::::::::::::::::::::::::::::::::::::::::
         ::                  THERMODYNAMIC                  ::
         :::::::::::::::::::::::::::::::::::::::::::::::::::::
         :: total free energy         -48.080721860592 Eh   ::
         ::.................................................::
         :: total energy              -48.471667294718 Eh   ::
         :: zero point energy           0.440877503783 Eh   ::
         :: G(RRHO) w/o ZPVE           -0.049932069656 Eh   ::
         :: G(RRHO) contrib.            0.390945434126 Eh   ::
         :::::::::::::::::::::::::::::::::::::::::::::::::::::
 
 normal mode %tage of torsion character
   1:  0.00   2:  0.00   3:  0.00   4:  0.00   5:  0.00   6:  0.00   7:  0.34   8:  0.33
   9:  0.61  10:  0.46  11:  0.54  12:  0.45  13:  0.55  14:  0.60  15:  0.60  16:  0.67
  17:  0.62  18:  0.48  19:  0.71  20:  0.66  21:  0.54  22:  0.43  23:  0.60  24:  0.88
  25:  0.68  26:  0.24  27:  0.29  28:  0.16  29:  0.13  30:  0.08  31:  0.07  32:  0.10
  33:  0.07  34:  0.51  35:  0.56  36:  0.51  37:  0.46  38:  0.49  39:  0.50  40:  0.49
  41:  0.54  42:  0.51  43:  0.44  44:  0.36  45:  0.14  46:  0.36  47:  0.44  48:  0.36
  49:  0.13  50:  0.32  51:  0.26  52:  0.07  53:  0.12  54:  0.03  55:  0.06  56:  0.08
  57:  0.03  58:  0.03  59:  0.10  60:  0.14  61:  0.06  62:  0.13  63:  0.13  64:  0.43
  65:  0.49  66:  0.52  67:  0.48  68:  0.25  69:  0.42  70:  0.24  71:  0.19  72:  0.22
  73:  0.19  74:  0.08  75:  0.17  76:  0.13  77:  0.15  78:  0.14  79:  0.11  80:  0.06
  81:  0.07  82:  0.07  83:  0.07  84:  0.09  85:  0.07  86:  0.07  87:  0.06  88:  0.05
  89:  0.06  90:  0.06  91:  0.00  92:  0.00  93:  0.62  94:  0.63  95:  0.62  96:  0.68
  97:  0.63  98:  0.64  99:  0.63 100:  0.64 101:  0.62 102:  0.61 103:  0.61 104:  0.61
 105:  0.71 106:  0.78 107:  0.76 108:  0.87 109:  0.90 110:  0.35 111:  0.36 112:  0.39
 113:  0.32 114:  0.31 115:  0.26 116:  0.19 117:  0.15 118:  0.20 119:  0.06 120:  0.01
 121:  0.01 122:  0.02 123:  0.01 124:  0.01 125:  0.01 126:  0.01 127:  0.01 128:  0.01
 129:  0.02 130:  0.01 131:  0.01 132:  0.01 133:  0.02 134:  0.02 135:  0.02 136:  0.08
 137:  0.04 138:  0.03 139:  0.03 140:  0.00 141:  0.02
 recommended # of modes for mode following           4

optimized geometry written to: xtbopt.xyz


           -------------------------------------------------
          | TOTAL ENERGY              -48.471667294718 Eh   |
          | TOTAL ENTHALPY            -48.009219173295 Eh   |
          | TOTAL FREE ENERGY         -48.080721860592 Eh   |
          | GRADIENT NORM               0.000913276792 Eh/α |
          | HOMO-LUMO GAP              12.107202801175 eV   |
           -------------------------------------------------

------------------------------------------------------------------------
 * finished run on 2024/04/23 at 12:10:46.089     
------------------------------------------------------------------------
 total:
 * wall-time:     0 d,  0 h,  0 min,  2.271 sec
 *  cpu-time:     0 d,  0 h,  0 min,  8.747 sec
 * ratio c/w:     3.851 speedup
 SCF:
 * wall-time:     0 d,  0 h,  0 min,  0.042 sec
 *  cpu-time:     0 d,  0 h,  0 min,  0.143 sec
 * ratio c/w:     3.380 speedup
 ANC optimizer:
 * wall-time:     0 d,  0 h,  0 min,  0.167 sec
 *  cpu-time:     0 d,  0 h,  0 min,  0.638 sec
 * ratio c/w:     3.812 speedup
 analytical hessian:
 * wall-time:     0 d,  0 h,  0 min,  1.979 sec
 *  cpu-time:     0 d,  0 h,  0 min,  7.753 sec
 * ratio c/w:     3.917 speedup

