47
 energy: -48.468453869722 gnorm: 0.034754537157 xtb: 6.6.1 (8d0f1dd)
C           -5.90496600000000        5.38677100000000        1.22161900000000
C           -4.82903400000000        4.33406800000000        1.43786000000000
C           -5.02971300000000        3.09453100000000        0.56454100000000
C           -3.94583100000000        2.03632000000000        0.77137400000000
C           -4.14327800000000        0.79997300000000       -0.10683900000000
C           -3.09174800000000       -0.28935900000000        0.12440500000000
C           -1.68141700000000        0.12129800000000       -0.30033100000000
C           -0.64622200000000       -0.98106200000000       -0.07567700000000
C            0.76493000000000       -0.56590600000000       -0.49133000000000
C            1.81191300000000       -1.64520400000000       -0.21643100000000
C            3.22379400000000       -1.22194000000000       -0.62161300000000
C            4.28114500000000       -2.27825300000000       -0.29937900000000
C            5.69363500000000       -1.84539000000000       -0.69531600000000
C            6.77836400000000       -2.85220400000000       -0.29831800000000
C            6.66433500000000       -4.18150900000000       -1.02885500000000
H           -5.75122300000000        6.26742000000000        1.85032500000000
H           -6.89694500000000        4.99064100000000        1.44893200000000
H           -5.92407100000000        5.72468900000000        0.18323700000000
H           -3.83662100000000        4.76103600000000        1.23874700000000
H           -4.80046300000000        4.03303100000000        2.49402500000000
H           -5.05970100000000        3.38926100000000       -0.49201300000000
H           -6.01587900000000        2.65750300000000        0.76551600000000
H           -2.96325500000000        2.48219500000000        0.57658800000000
H           -3.91900500000000        1.73766200000000        1.82686400000000
H           -5.14843400000000        0.39457400000000        0.07044600000000
H           -4.13734200000000        1.09735200000000       -1.16284000000000
H           -3.08533000000000       -0.57217600000000        1.18444500000000
H           -3.37359100000000       -1.20426000000000       -0.41385800000000
H           -1.68505200000000        0.41513700000000       -1.35754100000000
H           -1.37325300000000        1.02174300000000        0.24430500000000
H           -0.64668600000000       -1.27474700000000        0.98160400000000
H           -0.94219700000000       -1.88528700000000       -0.62223200000000
H            1.04470700000000        0.35749900000000        0.03134100000000
H            0.77459300000000       -0.30326300000000       -1.55665600000000
H            1.53765700000000       -2.56974000000000       -0.73983200000000
H            1.79824200000000       -1.90691300000000        0.84908800000000
H            3.24685900000000       -0.99009700000000       -1.69400500000000
H            3.48199500000000       -0.27973300000000       -0.12167800000000
H            4.02161100000000       -3.21889200000000       -0.80022300000000
H            4.25470200000000       -2.50922200000000        0.77314800000000
H            5.73150200000000       -1.67175700000000       -1.77816700000000
H            5.90609700000000       -0.86775100000000       -0.24174900000000
H            6.73757600000000       -3.01706300000000        0.78719000000000
H            7.77111700000000       -2.41649700000000       -0.48253500000000
H            6.69908800000000       -4.04154300000000       -2.11160000000000
H            7.47336700000000       -4.86641600000000       -0.76177600000000
H            5.72457200000000       -4.68731200000000       -0.79880100000000
47
 energy: -48.471079530807 gnorm: 0.015807307461 xtb: 6.6.1 (8d0f1dd)
C           -5.90372708300081        5.37730856161689        1.21759412758144
C           -4.82567723352728        4.32679899604105        1.43678112920683
C           -5.03125996314663        3.09053640019944        0.56175174680381
C           -3.94267598803532        2.03962524041949        0.77388299503739
C           -4.13467401040767        0.80569067438150       -0.10750116607500
C           -3.08442526923324       -0.28268201980370        0.12841426748542
C           -1.67473545093644        0.12385038456869       -0.30108822914204
C           -0.64499123251214       -0.98299552580273       -0.07519054492258
C            0.76547843853513       -0.56500463723366       -0.49139246583388
C            1.81088251363045       -1.64551621345053       -0.21535386793449
C            3.22177658051418       -1.21898572955193       -0.62116814155999
C            4.27372639562269       -2.27949557659059       -0.29791888849026
C            5.68445815628148       -1.84778566351753       -0.69857708526677
C            6.76772868192651       -2.85109169737320       -0.29643180343430
C            6.65898892087703       -4.17893722772696       -1.03065015360071
H           -5.73732155397256        6.24867040791191        1.85068751451108
H           -6.89015919480711        4.97669801402644        1.45045840896380
H           -5.91415247540452        5.71306888426581        0.18074271343087
H           -3.84281100604235        4.76153829333055        1.22333184587180
H           -4.81548631739382        4.02652414028387        2.49044012247443
H           -5.04520817629916        3.39167752675013       -0.49126457934080
H           -6.01111862348628        2.65181170020864        0.77870792839616
H           -2.96895149414389        2.49155777871748        0.56409461440989
H           -3.93251146963577        1.73427885662062        1.82577222172795
H           -5.12996982200095        0.38921364931001        0.08478211664412
H           -4.11770499462230        1.10480082834030       -1.16087508101181
H           -3.07696331814747       -0.55394962944075        1.18946349292672
H           -3.37387613482950       -1.18380482725214       -0.42396943243862
H           -1.68567430784811        0.40085656997801       -1.36071206611649
H           -1.36547809965040        1.01234682829948        0.25680110807864
H           -0.64154421343912       -1.26066232608250        0.98436930854768
H           -0.94039656795972       -1.87694372613675       -0.63483510129041
H            1.04355506527741        0.34887527247318        0.04466294035388
H            0.77085268600017       -0.31840914534064       -1.55849547143460
H            1.53865955775370       -2.56037137087662       -0.75249122524194
H            1.80147220932853       -1.89166335823249        0.85189931819802
H            3.24154536485030       -1.00384334608034       -1.69498033476573
H            3.47927375080071       -0.28625167706311       -0.10767127349025
H            4.01391276897061       -3.20866066092022       -0.81346050251290
H            4.25403943672585       -2.49403097277466        0.77613655888413
H            5.72309616561612       -1.68756980905519       -1.78132502872069
H            5.90463244631454       -0.88256489912855       -0.22892394786865
H            6.71785219454158       -3.02422713590401        0.78428963046139
H            7.75165726561749       -2.41212956931582       -0.49887797113733
H            6.69858439333828       -4.02933849554317       -2.10960237860218
H            7.47555268324380       -4.84561891581408       -0.75347329084256
H            5.72431232471600       -4.68398685173159       -0.79282907892047
47
 energy: -48.471542440059 gnorm: 0.002395102642 xtb: 6.6.1 (8d0f1dd)
C           -5.90363790881059        5.37078787141063        1.21482802195772
C           -4.82306172271603        4.32049465033059        1.43588745582981
C           -5.03058846152461        3.08620450686215        0.55982786567337
C           -3.93706899005938        2.04173784036789        0.77547877066507
C           -4.12619334883818        0.80920766695952       -0.10781412964621
C           -3.07601308683565       -0.27871115565684        0.13063379357157
C           -1.66701837918716        0.12775033632152       -0.30137014366506
C           -0.64323860357854       -0.98464341357865       -0.07441259650775
C            0.76623973586168       -0.56319775800850       -0.49173989156380
C            1.80861598008064       -1.64639160422013       -0.21377732601091
C            3.21821448832309       -1.21572792429494       -0.62069309112729
C            4.26535133517478       -2.28082190627501       -0.29687230502204
C            5.67468136821843       -1.84727540714720       -0.69937746150599
C            6.75791432891097       -2.84916428022539       -0.29575938909647
C            6.65487869841356       -4.17877023774081       -1.03185376496451
H           -5.73061672425435        6.23705861198140        1.85008378403667
H           -6.88610115579172        4.96604160606385        1.44914097841045
H           -5.90935883692085        5.70294339484632        0.17862646751955
H           -3.84581047844802        4.75771160709629        1.21567532570369
H           -4.82108177558418        4.02025885365117        2.48675862640247
H           -5.03795878061292        3.38953654073986       -0.49029251459298
H           -6.00589167029780        2.64628728113994        0.78378740662706
H           -2.96974853491640        2.49970294373494        0.56141755115834
H           -3.93615435316181        1.73355567687742        1.82430536830725
H           -5.11541739064263        0.38656700417129        0.08989191625869
H           -4.10218563238006        1.10984618438485       -1.15839000933325
H           -3.06761404715099       -0.54160986752527        1.19161049143836
H           -3.36992192289892       -1.17266867619908       -0.42658950366502
H           -1.68176884317720        0.39510600271121       -1.36116170915597
H           -1.35461261928462        1.00953309423608        0.26081656007245
H           -0.63828804293623       -1.25486631294250        0.98484082832872
H           -0.93838885256888       -1.87237204728907       -0.63987144415986
H            1.04292635746247        0.34509408038183        0.05013239468035
H            0.76971825573689       -0.32445112605945       -1.55840895775305
H            1.53830697239553       -2.55564111268513       -0.75695471421178
H            1.80135222343222       -1.88503967319660        0.85301715725766
H            3.23677438599545       -1.00796304719528       -1.69369973497316
H            3.47520339063562       -0.28885518000789       -0.10097283657747
H            4.00351309841791       -3.20340876008655       -0.81796344317267
H            4.24933142353833       -2.48686585976766        0.77663669532052
H            5.71278042266225       -1.69606889863389       -1.78116528534110
H            5.89712735206227       -0.88772920945811       -0.22455518064465
H            6.70202963954386       -3.02626749058552        0.78122388899724
H            7.73556007629879       -2.40659479217498       -0.50545490197134
H            6.69577098391846       -4.02247429391019       -2.10791575367506
H            7.47772676318896       -4.83280692931423       -0.75005291149814
H            5.72426688230550       -4.68583079008988       -0.79149734838149
47
 energy: -48.471589713508 gnorm: 0.001592259440 xtb: 6.6.1 (8d0f1dd)
C           -5.90392523026869        5.36809217899392        1.21379555112796
C           -4.82211610975320        4.31807638045309        1.43555676841373
C           -5.02940308963068        3.08408593290633        0.55931747309419
C           -3.93383911263440        2.04208710478011        0.77623873468083
C           -4.12183136503384        0.81052896161827       -0.10825017606425
C           -3.07164908881018       -0.27713476506551        0.13173249290591
C           -1.66356237239936        0.12962510323722       -0.30168789920871
C           -0.64222139372984       -0.98449730741070       -0.07426542070990
C            0.76659531425651       -0.56243691495424       -0.49167819576416
C            1.80718039861485       -1.64649509554038       -0.21304977331111
C            3.21598815479176       -1.21473721459825       -0.62000045633098
C            4.26123729131757       -2.28137457083263       -0.29622368591374
C            5.66967514253993       -1.84740558516531       -0.70028130737608
C            6.75367738067873       -2.84803427150930       -0.29515874474770
C            6.65337803423773       -4.17822699370452       -1.03248803233623
H           -5.73095969033842        6.23400594523766        1.84895349469887
H           -6.88547724204037        4.96169481997085        1.44774518411849
H           -5.90890978016123        5.69870812515390        0.17740204093824
H           -3.84557873461427        4.75532752557673        1.21492664103976
H           -4.82057728489068        4.01758889313285        2.48580073352657
H           -5.03693165499271        3.38675770628882       -0.49050689488449
H           -6.00339799526002        2.64267283406087        0.78363737490908
H           -2.96792903913179        2.50249439629722        0.56326433148357
H           -3.93373682623528        1.73371479732806        1.82448575046836
H           -5.11037522256205        0.38737575355539        0.08842438017629
H           -4.09567538060670        1.11178841585855       -1.15813615221214
H           -3.06226428369999       -0.53780454393281        1.19277259435964
H           -3.36503125716771       -1.17109734756285       -0.42453217305242
H           -1.67814911474647        0.39580571613034       -1.36121062792121
H           -1.34896205143512        1.01038439137340        0.25995535667067
H           -0.63729535509949       -1.25462961022160        0.98445966237024
H           -0.93760042605580       -1.87112947321035       -0.64021637947283
H            1.04317191627900        0.34510710629909        0.05039420823742
H            0.77020236240996       -0.32429288201122       -1.55790990366345
H            1.53711017057872       -2.55498096436836       -0.75649881145825
H            1.79977813466863       -1.88461619103711        0.85330334657965
H            3.23434232116782       -1.00660203209676       -1.69239594689437
H            3.47282635966581       -0.28892612511416       -0.09944544442136
H            3.99760213306971       -3.20284564604612       -0.81733517336688
H            4.24515089564808       -2.48677764077930        0.77689077015822
H            5.70662592145853       -1.69750365967644       -1.78185281626609
H            5.89078000986006       -0.88778602406495       -0.22615962216285
H            6.69580879348992       -3.02582290067402        0.78115102337128
H            7.73015566060838       -2.40408922747477       -0.50431834259457
H            6.69336826537579       -4.02077148434496       -2.10815259338011
H            7.47867566456366       -4.82856229161426       -0.75058625642169
H            5.72461277601714       -4.68813332524180       -0.79186208339340
47
 energy: -48.471636661041 gnorm: 0.003383027893 xtb: 6.6.1 (8d0f1dd)
C           -5.90527258807164        5.36090509413271        1.21107491957110
C           -4.82060793072383        4.31295861876070        1.43486316489215
C           -5.02537362357690        3.07890150222733        0.55911884683216
C           -3.92526312478725        2.04253105421877        0.77770280156090
C           -4.11033989281998        0.81347486994960       -0.10953476730281
C           -3.06057645386750       -0.27288241457985        0.13452751326706
C           -1.65515324647153        0.13449558561202       -0.30216857461438
C           -0.63943795519496       -0.98284653852451       -0.07447330679545
C            0.76760417367691       -0.56061497968846       -0.49133053900334
C            1.80323314190881       -1.64643227455111       -0.21118330921972
C            3.21008301775262       -1.21347243931795       -0.61739963604907
C            4.25095692645350       -2.28331191432005       -0.29516454148533
C            5.65702690894437       -1.84846113048204       -0.70261800661543
C            6.74309110019279       -2.84521725489602       -0.29416183529556
C            6.65043317434135       -4.17608894480619       -1.03392520270968
H           -5.73525657319095        6.22769520249232        1.84508657404404
H           -6.88520098610749        4.95046194931577        1.44381297841305
H           -5.90931029302268        5.68817302516113        0.17383704795537
H           -3.84459376836055        4.75054364008080        1.21463790063965
H           -4.81847865863157        4.01190894040055        2.48451976328092
H           -5.03477450112722        3.37912603123746       -0.49103279692084
H           -5.99682791536292        2.63274810802471        0.78315428101400
H           -2.96127891290482        2.50825852499758        0.56864254342430
H           -3.92528139007030        1.73347002483040        1.82529640025620
H           -5.09946693630953        0.39092071539811        0.08153311752491
H           -4.07814031558060        1.11651373164745       -1.15833738629099
H           -3.04831284065472       -0.52804604119277        1.19643420791493
H           -3.35122011820901       -1.16996582920684       -0.41682551575800
H           -1.66894202471527        0.39950896998788       -1.36146827161336
H           -1.33516547759122        1.01456530794690        0.25696369361876
H           -0.63515930610084       -1.25451809551895        0.98336478743212
H           -0.93594037999303       -1.86811149840222       -0.64091508199263
H            1.04467334723597        0.34639490594070        0.05040033515100
H            0.77229609470267       -0.32218985489483       -1.55697250835265
H            1.53282079858855       -2.55429784449492       -0.75445093170997
H            1.79449995412107       -1.88492919900733        0.85457478237630
H            3.22819448271079       -1.00195862139334       -1.68866681474121
H            3.46700140108378       -0.28922996769564       -0.09505234944060
H            3.98222153975926       -3.20370430975963       -0.81495415172649
H            4.23440012399873       -2.48857909591100        0.77751630344080
H            5.69061271015586       -1.70166434351674       -1.78436684982586
H            5.87397434129734       -0.88612523954590       -0.23282783712205
H            6.67989657097340       -3.02424070394202        0.78128122699796
H            7.71839285111086       -2.39795675067090       -0.49850014866427
H            6.68635193293554       -4.01629554360061       -2.10923415052808
H            7.48184439079779       -4.81902982261660       -0.75428494729280
H            5.72631023070431       -4.69417714982644       -0.79248872853706
47
 energy: -48.471647367914 gnorm: 0.001634052441 xtb: 6.6.1 (8d0f1dd)
C           -5.90593233151851        5.36026824656812        1.21078043812237
C           -4.82108113769802        4.31341467642997        1.43503952859392
C           -5.02483348910023        3.07899340979453        0.55970171793882
C           -3.92496043641140        2.04249810758198        0.77759423233868
C           -4.10987582536726        0.81361681316107       -0.10984736912390
C           -3.06057414840224       -0.27242628941650        0.13490653600858
C           -1.65531156099769        0.13474133142901       -0.30204983348051
C           -0.63933643794973       -0.98209008807070       -0.07473276768023
C            0.76775986002227       -0.56054472143224       -0.49123846479121
C            1.80306356676782       -1.64642305502895       -0.21111633191021
C            3.21006138818182       -1.21424907151186       -0.61688853271388
C            4.25109786526268       -2.28382148002776       -0.29533489906221
C            5.65704559836486       -1.84919361398350       -0.70307035469017
C            6.74301967281396       -2.84536920710041       -0.29415357257914
C            6.65080650969266       -4.17557756019780       -1.03399839077465
H           -5.73712072899015        6.22775950573834        1.84443458108765
H           -6.88598380161060        4.94969550128549        1.44346400533710
H           -5.91022894500350        5.68772460959635        0.17344302526250
H           -3.84489629954781        4.75159088573979        1.21515667086329
H           -4.81869586868293        4.01267110112891        2.48511156880653
H           -5.03459760727338        3.37916804758955       -0.49075474298014
H           -5.99640966329564        2.63243783657316        0.78374924645373
H           -2.96050045612340        2.50779626441269        0.56846124176703
H           -3.92442118885601        1.73292460728855        1.82536521619319
H           -5.09983129599023        0.39163911500321        0.07996231510600
H           -4.07683784969531        1.11677270153303       -1.15885359884178
H           -3.04819364069649       -0.52710466021241        1.19720320144761
H           -3.35095735219595       -1.17062708417108       -0.41545331206861
H           -1.66940763645028        0.40021103012340       -1.36158446765096
H           -1.33558523250604        1.01532747758072        0.25696256914445
H           -0.63525840246766       -1.25423421563561        0.98332059775184
H           -0.93608398979330       -1.86764438495720       -0.64123627016976
H            1.04521601792151        0.34675989285308        0.05048410711938
H            0.77280391880700       -0.32167823371832       -1.55712707141856
H            1.53216662874825       -2.55455406455216       -0.75437281497389
H            1.79384879044267       -1.88530565422549        0.85489376951656
H            3.22826528312672       -1.00184419919135       -1.68830892159729
H            3.46730352616250       -0.28993958427718       -0.09414206300441
H            3.98229772574038       -3.20459695959375       -0.81501785405260
H            4.23485716540011       -2.48954701803772        0.77758713767097
H            5.69053486314437       -1.70293766724573       -1.78516357282943
H            5.87392402847409       -0.88604203346330       -0.23422053803429
H            6.67933408946030       -3.02443191345940        0.78151308773416
H            7.71880346721434       -2.39785442497462       -0.49722788666310
H            6.68571137312002       -4.01567342243444       -2.10947313064117
H            7.48252106869677       -4.81887847372634       -0.75567278155050
H            5.72701691905869       -4.69421408076513       -0.79209025098165
47
 energy: -48.471656127368 gnorm: 0.002037969991 xtb: 6.6.1 (8d0f1dd)
C           -5.90907912326477        5.35759073053320        1.20944607848102
C           -4.82262409104013        4.31467276020376        1.43578679501225
C           -5.02319322804366        3.07913927620655        0.56155378487567
C           -3.92334768745728        2.04299065438475        0.77747886319819
C           -4.10768641788410        0.81483441887652       -0.11107035986570
C           -3.05995429745066       -0.27050662566840        0.13658411476686
C           -1.65517070649176        0.13612836579257       -0.30163579575726
C           -0.63883632299369       -0.97975242539185       -0.07546556320708
C            0.76854821445437       -0.55997556597050       -0.49089126497464
C            1.80235559748603       -1.64677281681337       -0.21063645152889
C            3.20991387033061       -1.21663764425448       -0.61495131692278
C            4.25103609985842       -2.28613695761624       -0.29584445625905
C            5.65647324993444       -1.85167772903589       -0.70484280738498
C            6.74234163470676       -2.84592830117637       -0.29389539784348
C            6.65215225776571       -4.17431524997985       -1.03461052520387
H           -5.74417767786561        6.22711581531550        1.84198087876202
H           -6.88896381836300        4.94561241870612        1.44177212437212
H           -5.91385938592179        5.68487151102422        0.17172954308827
H           -3.84663087888290        4.75517295028642        1.21664243651857
H           -4.81994342174533        4.01511880903515        2.48682033645088
H           -5.03392450512999        3.37937412028073       -0.48942086973982
H           -5.99463210696285        2.63122903246095        0.78603105220413
H           -2.95805125403891        2.50749799119916        0.56798140388167
H           -3.92152438013733        1.73144216221732        1.82529047805901
H           -5.09978241410801        0.39442177829026        0.07459261817938
H           -4.07100953108311        1.11850401324712       -1.16032649249556
H           -3.04723085940795       -0.52242720307555        1.20008695393928
H           -3.34994476795568       -1.17175556668201       -0.41041076923133
H           -1.67081646863957        0.40232898776125       -1.36166171829418
H           -1.33603376510527        1.01780600352508        0.25704410070105
H           -0.63532765933784       -1.25297071041978        0.98297507858379
H           -0.93624965635705       -1.86557643850749       -0.64247733578964
H            1.04718071433828        0.34760294365206        0.05114052313766
H            0.77472945269795       -0.32016896158826       -1.55725413785419
H            1.53004934534561       -2.55506218450989       -0.75427075611490
H            1.79158843497455       -1.88650035555994        0.85584878398832
H            3.22843788980681       -1.00164055580469       -1.68649772104335
H            3.46819666521253       -0.29287425310363       -0.09041631262022
H            3.98201323676865       -3.20750468856206       -0.81553577598327
H            4.23645593762313       -2.49295582082556        0.77751585973022
H            5.68966418892161       -1.70849876283809       -1.78786875201342
H            5.87303116186010       -0.88617413792703       -0.23936900367414
H            6.67633160167247       -3.02550539133035        0.78204171557973
H            7.71901270961723       -2.39713858525581       -0.49306810821146
H            6.68319784781096       -4.01300085444494       -2.11029360997748
H            7.48582169476172       -4.81747264083913       -0.76082266734859
H            5.73000661972027       -4.69531631581753       -0.79080055417066
47
 energy: -48.471658924605 gnorm: 0.001266925663 xtb: 6.6.1 (8d0f1dd)
C           -5.90989133339050        5.35742206664434        1.20929311797469
C           -4.82289398698170        4.31480698204026        1.43591333044769
C           -5.02332491351804        3.07925443469687        0.56159778476484
C           -3.92318453284860        2.04337640764086        0.77757859089508
C           -4.10746157041493        0.81529233106963       -0.11117470186143
C           -3.05980002177877       -0.27024647146456        0.13683247765111
C           -1.65498190161389        0.13634722006282       -0.30160282442712
C           -0.63876730812935       -0.97976145642286       -0.07539250332270
C            0.76871311681850       -0.55988388892200       -0.49080153463363
C            1.80236432963711       -1.64697875407147       -0.21052196266063
C            3.21001092982012       -1.21673867651008       -0.61477332398033
C            4.25103196253526       -2.28652024813703       -0.29583937901770
C            5.65643389754526       -1.85193095744333       -0.70509021118188
C            6.74243027727998       -2.84610285490128       -0.29379438367471
C            6.65247071658798       -4.17456276450861       -1.03486160657297
H           -5.74529031322663        6.22696710386254        1.84176179564182
H           -6.88949507279380        4.94485916678380        1.44149806637387
H           -5.91456300202865        5.68431444243296        0.17151554696081
H           -3.84719908615488        4.75556652726126        1.21666816666824
H           -4.82030740121443        4.01534996534320        2.48683272691702
H           -5.03409598040265        3.37954458141419       -0.48923107137681
H           -5.99455307926189        2.63123518002330        0.78616760984235
H           -2.95815227685664        2.50817039611789        0.56809122351419
H           -3.92143226219898        1.73174136640067        1.82521442503643
H           -5.09943203445199        0.39488421185496        0.07433023041224
H           -4.07038939827240        1.11900272042841       -1.16028484453841
H           -3.04712818955890       -0.52167922193097        1.20032798059362
H           -3.34993452238084       -1.17136237772327       -0.40998797469072
H           -1.67080022721047        0.40233257363501       -1.36152333731117
H           -1.33570700668804        1.01784750836235        0.25703494401486
H           -0.63525934935606       -1.25291172045867        0.98291887478579
H           -0.93612184205153       -1.86534750466051       -0.64252219093849
H            1.04734938774719        0.34743078190030        0.05136805771982
H            0.77494505424220       -0.32014742712473       -1.55702758032781
H            1.53009612104544       -2.55498626198439       -0.75434437341699
H            1.79154100690494       -1.88668857889048        0.85581448917669
H            3.22856978815008       -1.00165673890545       -1.68615661311023
H            3.46832239088614       -0.29329930002287       -0.08998782076422
H            3.98196227002885       -3.20762406423541       -0.81570115479306
H            4.23667487986462       -2.49338935928305        0.77736988766002
H            5.68962289755545       -1.70924007214630       -1.78805926147592
H            5.87285976339675       -0.88644631403381       -0.23986200697958
H            6.67611124109788       -3.02585047645861        0.78198685241502
H            7.71889983065716       -2.39716701484123       -0.49291445245163
H            6.68307339191918       -4.01284467634060       -2.11043327885963
H            7.48656963637978       -4.81720439025020       -0.76140165095277
H            5.73065772268470       -4.69596639630380       -0.79082113614556
47
 energy: -48.471664325736 gnorm: 0.001533511715 xtb: 6.6.1 (8d0f1dd)