 Entering Gaussian System
 *********************************************
 Gaussian 98:
 frequency output generated by the xtb code
 *********************************************
                         Standard orientation:
 --------------------------------------------------------------------
  Center     Atomic     Atomic              Coordinates (Angstroms)
  Number     Number      Type              X           Y           Z
 --------------------------------------------------------------------
    1          6             0       -2.528148    0.333322   -0.000964
    2          6             0       -1.266663   -0.520754   -0.001029
    3          6             0        0.000014    0.331389    0.002668
    4          6             0        1.266641   -0.520829    0.000799
    5          6             0        2.528169    0.333184   -0.001444
    6          1             0       -2.555548    0.974106   -0.879828
    7          1             0       -2.561240    0.965907    0.883619
    8          1             0       -3.416142   -0.294775   -0.006763
    9          1             0       -1.264696   -1.164201   -0.884133
   10          1             0       -1.267335   -1.168408    0.878987
   11          1             0       -0.000558    0.974136    0.886435
   12          1             0        0.000619    0.979623   -0.877097
   13          1             0        1.264585   -1.166463   -0.880705
   14          1             0        1.267346   -1.166303    0.882416
   15          1             0        3.416138   -0.294963    0.001635
   16          1             0        2.557736    0.973248    0.877869
   17          1             0        2.559132    0.966486   -0.885589
 --------------------------------------------------------------------
     1 basis functions        1 primitive gaussians
     1 alpha electrons        1 beta electrons
 
 Harmonic frequencies (cm**-1), IR intensities (km*mol⁻¹),
 Raman scattering activities (A**4/amu), Raman depolarization ratios,
 reduced masses (AMU), force constants (mDyne/A) and normal coordinates:
                      1                      2                      3
                        a                      a                      a 
 Frequencies --   100.5521               102.1886               182.9541
 Red. masses --     5.2824                 7.8119                 8.3111
 Frc consts  --     0.0000                 0.0000                 0.0000
 IR Inten    --     0.0000                 0.0127                 0.2208
 Raman Activ --     0.0000                 0.0000                 0.0000
 Depolar     --     0.0000                 0.0000                 0.0000
 Atom AN      X      Y      Z        X      Y      Z        X      Y      Z
   1   6     0.00   0.00  -0.19     0.00   0.00  -0.36     0.23   0.35   0.00
   2   6    -0.00  -0.00   0.40    -0.00  -0.00   0.10    -0.14  -0.20  -0.00
   3   6     0.00  -0.00  -0.00    -0.00  -0.00   0.59    -0.00  -0.43  -0.00
   4   6    -0.00   0.00  -0.40     0.00  -0.00   0.10     0.14  -0.20  -0.00
   5   6     0.00   0.00   0.19    -0.00   0.00  -0.36    -0.23   0.35   0.00
   6   1    -0.01  -0.19  -0.20     0.10   0.01  -0.10     0.16   0.11   0.00
   7   1     0.01   0.19  -0.19    -0.10  -0.01  -0.10     0.16   0.11  -0.00
   8   1    -0.00  -0.00   0.09     0.00   0.00  -0.21    -0.02   0.23   0.00
   9   1     0.02  -0.15   0.22     0.09   0.02   0.02    -0.10  -0.06  -0.00
  10   1    -0.02   0.14   0.22    -0.09  -0.02   0.02    -0.10  -0.05   0.00
  11   1     0.08   0.00  -0.00     0.00  -0.13   0.26    -0.00  -0.12  -0.00
  12   1    -0.08  -0.00  -0.00    -0.00   0.13   0.26     0.00  -0.12   0.00
  13   1     0.02   0.14  -0.22    -0.09   0.02   0.01     0.10  -0.06  -0.00
  14   1    -0.02  -0.14  -0.22     0.10  -0.02   0.01     0.10  -0.05   0.00
  15   1    -0.00  -0.00  -0.09     0.00   0.00  -0.21     0.02   0.23   0.00
  16   1     0.01  -0.19   0.20     0.10  -0.01  -0.10    -0.16   0.11  -0.00
  17   1    -0.01   0.19   0.19    -0.10   0.01  -0.10    -0.16   0.11  -0.00
                      4                      5                      6
                        a                      a                      a 
 Frequencies --   231.4440               235.8548               399.6643
 Red. masses --     1.8029                 2.4394                 8.1060
 Frc consts  --     0.0000                 0.0000                 0.0000
 IR Inten    --     0.0087                 0.0000                 0.0154
 Raman Activ --     0.0000                 0.0000                 0.0000
 Depolar     --     0.0000                 0.0000                 0.0000
 Atom AN      X      Y      Z        X      Y      Z        X      Y      Z
   1   6     0.00   0.00  -0.02    -0.00  -0.00  -0.05    -0.26  -0.08  -0.00
   2   6    -0.00  -0.00   0.13    -0.00   0.00   0.25     0.11   0.41   0.00
   3   6     0.00  -0.00  -0.20     0.00   0.00  -0.00     0.36   0.00  -0.00
   4   6     0.00  -0.00   0.13    -0.00   0.00  -0.25     0.11  -0.41  -0.00
   5   6    -0.00   0.00  -0.02     0.00  -0.00   0.05    -0.26   0.08   0.00
   6   1     0.20   0.25   0.17     0.22   0.22   0.14    -0.19  -0.03  -0.00
   7   1    -0.20  -0.25   0.17    -0.22  -0.23   0.14    -0.19  -0.03   0.00
   8   1     0.00   0.00  -0.39     0.00   0.00  -0.40     0.04  -0.19   0.00
   9   1    -0.01  -0.06   0.08     0.01  -0.06   0.12     0.04   0.11   0.00
  10   1     0.01   0.06   0.08    -0.01   0.06   0.12     0.04   0.11  -0.00
  11   1    -0.00   0.11  -0.14     0.05   0.00  -0.00     0.19   0.00  -0.00
  12   1     0.00  -0.11  -0.14    -0.05  -0.00  -0.00     0.19  -0.00  -0.00
  13   1     0.01  -0.06   0.08     0.01   0.06  -0.12     0.04  -0.11  -0.00
  14   1    -0.01   0.06   0.08    -0.01  -0.06  -0.12     0.04  -0.11   0.00
  15   1     0.00  -0.00  -0.39    -0.00   0.00   0.40     0.04   0.19  -0.00
  16   1     0.20  -0.25   0.17    -0.22   0.22  -0.14    -0.19   0.03  -0.00
  17   1    -0.21   0.25   0.17     0.22  -0.22  -0.14    -0.19   0.03   0.00
                      7                      8                      9
                        a                      a                      a 
 Frequencies --   401.0880               771.6904               805.7623
 Red. masses --     9.5080                 1.6704                 2.1349
 Frc consts  --     0.0000                 0.0000                 0.0000
 IR Inten    --     0.0412                11.2351                 0.0000
 Raman Activ --     0.0000                 0.0000                 0.0000
 Depolar     --     0.0000                 0.0000                 0.0000
 Atom AN      X      Y      Z        X      Y      Z        X      Y      Z
   1   6     0.46  -0.08   0.00     0.00   0.00  -0.01     0.00  -0.00   0.06
   2   6     0.36  -0.06   0.00     0.00   0.00  -0.13    -0.00  -0.00   0.22
   3   6    -0.00   0.26   0.00    -0.00   0.00  -0.17    -0.00  -0.00   0.00
   4   6    -0.36  -0.06  -0.00     0.00   0.00  -0.13    -0.00   0.00  -0.22
   5   6    -0.46  -0.08   0.00    -0.00  -0.00  -0.01    -0.00  -0.00  -0.06
   6   1     0.16  -0.02   0.00    -0.09   0.08   0.06     0.19  -0.15  -0.10
   7   1     0.16  -0.02  -0.00     0.09  -0.09   0.06    -0.19   0.15  -0.10
   8   1     0.10   0.02  -0.00    -0.00   0.00   0.04     0.00  -0.00  -0.10
   9   1     0.15  -0.01  -0.00    -0.05  -0.29   0.18    -0.04   0.32  -0.18
  10   1     0.15  -0.01   0.00     0.05   0.29   0.18     0.04  -0.32  -0.18
  11   1    -0.00   0.07   0.00    -0.00  -0.37   0.23     0.16   0.00   0.00
  12   1    -0.00   0.07  -0.00    -0.00   0.37   0.23    -0.16  -0.00  -0.00
  13   1    -0.15  -0.01  -0.00     0.05  -0.29   0.18    -0.04  -0.32   0.18
  14   1    -0.15  -0.01   0.00    -0.05   0.29   0.18     0.04   0.32   0.18
  15   1    -0.10   0.02   0.00    -0.00  -0.00   0.04    -0.00  -0.00   0.10
  16   1    -0.16  -0.02  -0.00    -0.09  -0.08   0.06    -0.19  -0.15   0.11
  17   1    -0.16  -0.02   0.00     0.09   0.08   0.06     0.19   0.15   0.10
                     10                     11                     12
                        a                      a                      a 
 Frequencies --   893.5446               915.7182               975.5805
 Red. masses --     2.4368                 5.8439                 5.7304
 Frc consts  --     0.0000                 0.0000                 0.0000
 IR Inten    --     3.3034                 2.8074                 6.2800
 Raman Activ --     0.0000                 0.0000                 0.0000
 Depolar     --     0.0000                 0.0000                 0.0000
 Atom AN      X      Y      Z        X      Y      Z        X      Y      Z
   1   6     0.00   0.00  -0.14    -0.22  -0.09  -0.00     0.33   0.04   0.00
   2   6     0.00   0.00  -0.09    -0.11  -0.23  -0.00    -0.03   0.18   0.00
   3   6    -0.00  -0.00   0.28     0.00   0.44   0.00    -0.38  -0.00  -0.00
   4   6    -0.00   0.00  -0.09     0.11  -0.23  -0.00    -0.03  -0.18   0.00
   5   6     0.00  -0.00  -0.14     0.22  -0.09  -0.00     0.33  -0.04  -0.00
   6   1    -0.24   0.18   0.11     0.18   0.01   0.01    -0.14  -0.03  -0.02
   7   1     0.24  -0.18   0.11     0.18   0.01  -0.01    -0.14  -0.03   0.02
   8   1    -0.00  -0.00   0.13    -0.29   0.31   0.00     0.30  -0.30  -0.00
   9   1     0.23  -0.09   0.05     0.08  -0.06  -0.00    -0.10   0.05  -0.00
  10   1    -0.23   0.09   0.05     0.08  -0.06   0.00    -0.10   0.05   0.00
  11   1    -0.00   0.27  -0.13    -0.00   0.12   0.00    -0.20  -0.00  -0.00
  12   1    -0.00  -0.27  -0.13     0.00   0.12  -0.00    -0.20   0.00  -0.00
  13   1    -0.23  -0.09   0.05    -0.08  -0.06  -0.00    -0.10  -0.05   0.00
  14   1     0.23   0.09   0.05    -0.08  -0.06   0.00    -0.10  -0.05  -0.00
  15   1    -0.00  -0.00   0.13     0.29   0.31  -0.00     0.30   0.30  -0.00
  16   1    -0.24  -0.18   0.11    -0.18   0.01  -0.01    -0.14   0.03  -0.02
  17   1     0.24   0.18   0.10    -0.18   0.01   0.01    -0.14   0.03   0.02
                     13                     14                     15
                        a                      a                      a 
 Frequencies --   990.4296              1066.5055              1103.9069
 Red. masses --     1.9625                 8.1739                 9.2364
 Frc consts  --     0.0000                 0.0000                 0.0000
 IR Inten    --     0.0000                 1.4777                 0.0666
 Raman Activ --     0.0000                 0.0000                 0.0000
 Depolar     --     0.0000                 0.0000                 0.0000
 Atom AN      X      Y      Z        X      Y      Z        X      Y      Z
   1   6     0.00   0.00  -0.16     0.16  -0.33  -0.00     0.27  -0.26  -0.00
   2   6    -0.00  -0.00   0.14    -0.22   0.35   0.00    -0.43   0.18  -0.00
   3   6    -0.00   0.00   0.00    -0.20   0.00   0.00     0.00   0.17   0.00
   4   6     0.00  -0.00  -0.14    -0.23  -0.35   0.00     0.43   0.18  -0.00
   5   6     0.00  -0.00   0.16     0.16   0.33  -0.00    -0.27  -0.26   0.00
   6   1    -0.19   0.14   0.07     0.23  -0.06   0.01     0.13  -0.07  -0.00
   7   1     0.19  -0.14   0.07     0.23  -0.06  -0.01     0.13  -0.07   0.00
   8   1    -0.00   0.00   0.10    -0.10   0.12  -0.00     0.04  -0.03  -0.00
   9   1     0.29   0.11  -0.04     0.04   0.09  -0.00    -0.19   0.05  -0.00
  10   1    -0.29  -0.11  -0.04     0.04   0.09   0.00    -0.19   0.05   0.00
  11   1     0.36   0.00   0.00     0.12   0.00   0.00    -0.00   0.06  -0.01
  12   1    -0.36   0.00  -0.00     0.12  -0.00   0.00     0.00   0.06   0.01
  13   1     0.28  -0.11   0.04     0.04  -0.09   0.00     0.19   0.05  -0.00
  14   1    -0.29   0.11   0.04     0.04  -0.09  -0.00     0.19   0.05   0.00
  15   1     0.00   0.00  -0.10    -0.10  -0.12  -0.00    -0.04  -0.03   0.00
  16   1     0.19   0.14  -0.07     0.23   0.06   0.01    -0.13  -0.07   0.00
  17   1    -0.20  -0.14  -0.07     0.23   0.06  -0.01    -0.13  -0.07  -0.00
                     16                     17                     18
                        a                      a                      a 
 Frequencies --  1118.0180              1154.3990              1201.3378
 Red. masses --     7.1910                 7.9515                 6.3420
 Frc consts  --     0.0000                 0.0000                 0.0000
 IR Inten    --     1.2622                 2.2727                 0.7911
 Raman Activ --     0.0000                 0.0000                 0.0000
 Depolar     --     0.0000                 0.0000                 0.0000
 Atom AN      X      Y      Z        X      Y      Z        X      Y      Z
   1   6    -0.15   0.07  -0.00     0.09   0.20   0.00    -0.00  -0.00   0.23
   2   6     0.33   0.14   0.00    -0.11  -0.37  -0.00     0.00   0.00  -0.36
   3   6    -0.50   0.00   0.00     0.00   0.48   0.00    -0.00  -0.00   0.35
   4   6     0.33  -0.14  -0.00     0.11  -0.37  -0.00    -0.00   0.00  -0.36
   5   6    -0.15  -0.07   0.00    -0.09   0.20  -0.00     0.00  -0.00   0.23
   6   1     0.01   0.04   0.01    -0.18   0.01  -0.02     0.17  -0.14  -0.06
   7   1     0.01   0.04  -0.01    -0.18   0.01   0.02    -0.17   0.14  -0.06
   8   1    -0.08   0.09   0.00     0.18  -0.18  -0.00     0.00   0.00  -0.10
   9   1     0.27   0.04  -0.00    -0.11  -0.09  -0.00    -0.00  -0.21   0.07
  10   1     0.27   0.04   0.00    -0.11  -0.09   0.00     0.00   0.21   0.07
  11   1    -0.22   0.00  -0.00     0.00   0.12   0.00     0.00   0.21  -0.07
  12   1    -0.22  -0.00  -0.00    -0.00   0.12  -0.00     0.00  -0.21  -0.07
  13   1     0.27  -0.04   0.00     0.11  -0.09  -0.00     0.00  -0.21   0.07
  14   1     0.27  -0.04  -0.00     0.11  -0.09   0.00    -0.00   0.21   0.07
  15   1    -0.08  -0.09   0.00    -0.18  -0.18   0.00     0.00   0.00  -0.10
  16   1     0.01  -0.04   0.01     0.18   0.01   0.02     0.17   0.14  -0.06
  17   1     0.01  -0.04  -0.01     0.18   0.01  -0.02    -0.17  -0.14  -0.06
                     19                     20                     21
                        a                      a                      a 
 Frequencies --  1240.1372              1278.1902              1284.5980
 Red. masses --     3.9252                 3.6311                 1.6157
 Frc consts  --     0.0000                 0.0000                 0.0000
 IR Inten    --     0.0000                 1.1112                 0.0000
 Raman Activ --     0.0000                 0.0000                 0.0000
 Depolar     --     0.0000                 0.0000                 0.0000
 Atom AN      X      Y      Z        X      Y      Z        X      Y      Z
   1   6     0.00   0.00  -0.26     0.06   0.14  -0.00    -0.00  -0.00  -0.03
   2   6    -0.00  -0.00   0.25    -0.21  -0.14  -0.00     0.00   0.00  -0.16
   3   6     0.00   0.00  -0.00    -0.25   0.00   0.00     0.00  -0.00  -0.00
   4   6    -0.00  -0.00  -0.25    -0.21   0.14   0.00     0.00  -0.00   0.16
   5   6     0.00   0.00   0.26     0.06  -0.14  -0.00    -0.00   0.00   0.03
   6   1    -0.17   0.15   0.06    -0.06  -0.01  -0.03    -0.02   0.01  -0.00
   7   1     0.17  -0.15   0.06    -0.06  -0.02   0.03     0.02  -0.01  -0.00
   8   1    -0.00  -0.00   0.10     0.12  -0.12   0.00    -0.00   0.00  -0.02
   9   1    -0.28   0.14  -0.04     0.26  -0.03  -0.01    -0.29  -0.08   0.02
  10   1     0.28  -0.14  -0.04     0.27  -0.03   0.01     0.29   0.08   0.02
  11   1    -0.22   0.00  -0.00     0.45   0.00   0.00     0.53  -0.00   0.00
  12   1     0.21   0.00   0.00     0.44  -0.00   0.00    -0.54   0.00  -0.00
  13   1    -0.28  -0.14   0.04     0.27   0.03   0.01    -0.29   0.08  -0.02
  14   1     0.28   0.14   0.04     0.27   0.03  -0.01     0.29  -0.08  -0.02
  15   1     0.00   0.00  -0.10     0.12   0.12   0.00    -0.00  -0.00   0.02
  16   1     0.17   0.15  -0.06    -0.06   0.01  -0.03     0.02   0.01   0.00
  17   1    -0.17  -0.15  -0.06    -0.06   0.02   0.03    -0.02  -0.01   0.00
                     22                     23                     24
                        a                      a                      a 
 Frequencies --  1285.5781              1345.5969              1378.8443
 Red. masses --     2.5442                 4.3298                 5.5382
 Frc consts  --     0.0000                 0.0000                 0.0000
 IR Inten    --     0.0276                 0.0943                 1.2572
 Raman Activ --     0.0000                 0.0000                 0.0000
 Depolar     --     0.0000                 0.0000                 0.0000
 Atom AN      X      Y      Z        X      Y      Z        X      Y      Z
   1   6    -0.00   0.00   0.16    -0.04  -0.11  -0.00     0.05   0.04   0.00
   2   6    -0.00  -0.00   0.01     0.37   0.00   0.00    -0.32   0.03  -0.00
   3   6    -0.00   0.00  -0.30     0.00   0.09   0.00     0.44  -0.00   0.00
   4   6    -0.00   0.00   0.01    -0.37   0.00   0.00    -0.32  -0.03   0.00
   5   6     0.00  -0.00   0.16     0.04  -0.11  -0.00     0.05  -0.04  -0.00
   6   1     0.09  -0.09  -0.03    -0.01   0.04   0.04    -0.00  -0.03  -0.03
   7   1    -0.09   0.09  -0.03    -0.01   0.04  -0.04    -0.00  -0.03   0.03
   8   1     0.00  -0.00  -0.05    -0.12   0.12   0.00     0.05  -0.04  -0.00
   9   1     0.43   0.01  -0.01    -0.40   0.01  -0.01     0.26  -0.02   0.02
  10   1    -0.43  -0.01  -0.01    -0.39   0.01   0.00     0.26  -0.02  -0.02
  11   1     0.00  -0.15   0.03     0.00  -0.01   0.02    -0.38  -0.00  -0.00
  12   1     0.00   0.15   0.04    -0.00  -0.01  -0.02    -0.38   0.00  -0.00
  13   1    -0.43   0.01  -0.01     0.40   0.01  -0.01     0.26   0.02  -0.02
  14   1     0.43  -0.01  -0.01     0.39   0.01   0.00     0.26   0.02   0.02
  15   1     0.00   0.00  -0.05     0.12   0.12  -0.00     0.05   0.04  -0.00
  16   1     0.09   0.09  -0.03     0.01   0.04  -0.04    -0.00   0.03  -0.03
  17   1    -0.09  -0.09  -0.03     0.01   0.04   0.04    -0.00   0.03   0.03
                     25                     26                     27
                        a                      a                      a 
 Frequencies --  1415.7887              1417.4969              1496.5924
 Red. masses --     3.1386                 3.2318                 1.8366
 Frc consts  --     0.0000                 0.0000                 0.0000
 IR Inten    --     1.1179                 0.4080                 0.2506
 Raman Activ --     0.0000                 0.0000                 0.0000
 Depolar     --     0.0000                 0.0000                 0.0000
 Atom AN      X      Y      Z        X      Y      Z        X      Y      Z
   1   6    -0.26   0.16  -0.00    -0.27   0.15  -0.00    -0.00  -0.04  -0.00
   2   6     0.04   0.01   0.00     0.08  -0.00  -0.00    -0.00   0.19   0.00
   3   6    -0.00  -0.00   0.00    -0.00   0.03   0.00    -0.03   0.00   0.00
   4   6     0.04  -0.01  -0.00    -0.08  -0.00   0.00    -0.00  -0.19   0.00
   5   6    -0.26  -0.16   0.00     0.27   0.15  -0.00    -0.00   0.04  -0.00
   6   1     0.33  -0.12  -0.11     0.33  -0.11  -0.10     0.00   0.11   0.08
   7   1     0.33  -0.12   0.11     0.33  -0.11   0.10     0.00   0.12  -0.08
   8   1     0.20  -0.30  -0.00     0.19  -0.30  -0.00     0.02  -0.03  -0.00
   9   1    -0.04  -0.03   0.02    -0.08  -0.03   0.02     0.00  -0.37   0.27
  10   1    -0.04  -0.03  -0.02    -0.08  -0.03  -0.02     0.00  -0.37  -0.27
  11   1    -0.01  -0.00   0.00     0.00   0.01  -0.00     0.03  -0.00   0.00
  12   1    -0.01  -0.00   0.00    -0.00   0.01   0.00     0.03   0.00   0.00
  13   1    -0.04   0.03  -0.02     0.08  -0.03   0.02     0.00   0.37  -0.27
  14   1    -0.04   0.03   0.02     0.08  -0.03  -0.02     0.00   0.37   0.27
  15   1     0.20   0.30  -0.00    -0.19  -0.30   0.00     0.02   0.03  -0.00
  16   1     0.33   0.12  -0.11    -0.33  -0.11   0.10     0.00  -0.11   0.08
  17   1     0.33   0.12   0.11    -0.32  -0.11  -0.10     0.00  -0.12  -0.08
                     28                     29                     30
                        a                      a                      a 
 Frequencies --  1497.9883              1502.4433              1505.2125
 Red. masses --     1.9615                 1.8078                 1.5284
 Frc consts  --     0.0000                 0.0000                 0.0000
 IR Inten    --     0.2122                 0.2297                 4.7967
 Raman Activ --     0.0000                 0.0000                 0.0000
 Depolar     --     0.0000                 0.0000                 0.0000
 Atom AN      X      Y      Z        X      Y      Z        X      Y      Z
   1   6     0.01   0.04   0.00     0.01  -0.02   0.00     0.00   0.00   0.16
   2   6     0.04  -0.04   0.00     0.00   0.19   0.00     0.00   0.00   0.03
   3   6    -0.00  -0.28  -0.00     0.00  -0.04  -0.00    -0.00  -0.00  -0.00
   4   6    -0.04  -0.04  -0.00    -0.00   0.19  -0.00     0.00   0.00   0.03
   5   6    -0.01   0.04  -0.00    -0.01  -0.02  -0.00     0.00  -0.00   0.14
   6   1    -0.03  -0.10  -0.07    -0.01   0.06   0.05    -0.34  -0.12  -0.06
   7   1    -0.03  -0.10   0.07    -0.01   0.07  -0.05     0.34   0.11  -0.06
   8   1    -0.04   0.06  -0.00     0.01  -0.01  -0.00     0.00   0.00  -0.55
   9   1    -0.02   0.07  -0.05    -0.01  -0.37   0.27    -0.02   0.01   0.00
  10   1    -0.02   0.07   0.05    -0.01  -0.37  -0.28     0.02  -0.01  -0.00
  11   1    -0.00   0.51  -0.38    -0.00   0.13  -0.09    -0.00   0.00  -0.00
  12   1     0.00   0.51   0.38     0.00   0.13   0.09     0.00   0.00   0.00
  13   1     0.02   0.07  -0.05     0.01  -0.37   0.27     0.01   0.01   0.00
  14   1     0.02   0.07   0.05     0.01  -0.37  -0.27    -0.01  -0.01   0.00
  15   1     0.04   0.06   0.01    -0.01  -0.01   0.01    -0.00  -0.00  -0.46
  16   1     0.03  -0.10   0.07     0.01   0.06  -0.05    -0.28   0.10  -0.05
  17   1     0.02  -0.10  -0.07     0.00   0.07   0.05     0.28  -0.09  -0.05
                     31                     32                     33
                        a                      a                      a 
 Frequencies --  1505.2342              1507.7767              1508.3808
 Red. masses --     1.5360                 1.6817                 1.6395
 Frc consts  --     0.0000                 0.0000                 0.0000
 IR Inten    --     0.0385                 1.0412                 1.2905
 Raman Activ --     0.0000                 0.0000                 0.0000
 Depolar     --     0.0000                 0.0000                 0.0000
 Atom AN      X      Y      Z        X      Y      Z        X      Y      Z
   1   6     0.00   0.00  -0.14     0.08   0.12   0.00    -0.08  -0.12  -0.00
   2   6     0.00   0.00  -0.03     0.04   0.08   0.00    -0.03  -0.07  -0.00
   3   6    -0.00  -0.00  -0.00    -0.03  -0.00  -0.00     0.00  -0.06  -0.00
   4   6    -0.00   0.00   0.04     0.04  -0.08  -0.00     0.03  -0.07   0.00
   5   6    -0.00   0.00   0.16     0.08  -0.13  -0.00     0.08  -0.12   0.00
   6   1     0.28   0.09   0.05    -0.09  -0.34  -0.25     0.09   0.34   0.25
   7   1    -0.28  -0.10   0.05    -0.10  -0.34   0.25     0.09   0.34  -0.25
   8   1    -0.00  -0.00   0.46    -0.12   0.19   0.00     0.12  -0.19  -0.00
   9   1     0.01  -0.02   0.00    -0.03  -0.10   0.08     0.02   0.07  -0.06
  10   1    -0.01   0.01  -0.00    -0.03  -0.10  -0.08     0.02   0.07   0.06
  11   1     0.03   0.00  -0.00     0.01   0.00  -0.00    -0.00   0.14  -0.10
  12   1    -0.03   0.01   0.00     0.01   0.00   0.00    -0.00   0.14   0.10
  13   1     0.01   0.01   0.00    -0.03   0.10  -0.08    -0.02   0.07  -0.06
  14   1    -0.01  -0.02  -0.00    -0.03   0.10   0.08    -0.02   0.07   0.06
  15   1     0.00  -0.00  -0.55    -0.12  -0.19   0.01    -0.12  -0.19  -0.00
  16   1    -0.34   0.11  -0.06    -0.09   0.34  -0.25    -0.09   0.34  -0.25
  17   1     0.34  -0.11  -0.06    -0.10   0.35   0.25    -0.09   0.34   0.25
                     34                     35                     36
                        a                      a                      a 
 Frequencies --  2954.8619              2962.1929              2974.2530
 Red. masses --     1.9056                 1.9775                 1.9857
 Frc consts  --     0.0000                 0.0000                 0.0000
 IR Inten    --     0.7669                 0.0002               118.0283
 Raman Activ --     0.0000                 0.0000                 0.0000
 Depolar     --     0.0000                 0.0000                 0.0000
 Atom AN      X      Y      Z        X      Y      Z        X      Y      Z
   1   6     0.00   0.00   0.01     0.00   0.00   0.02    -0.00   0.00  -0.03
   2   6     0.00   0.00  -0.13     0.00  -0.00  -0.21    -0.00   0.02   0.15
   3   6    -0.00  -0.00   0.22    -0.00  -0.00  -0.00    -0.00  -0.05   0.19
   4   6    -0.00   0.00  -0.13     0.00   0.00   0.21     0.00   0.02   0.15
   5   6     0.00   0.00   0.01    -0.00   0.00  -0.02     0.00   0.00  -0.03
   6   1    -0.00   0.02  -0.02    -0.00   0.03  -0.04    -0.00  -0.04   0.05
   7   1     0.00  -0.02  -0.02     0.00  -0.03  -0.04    -0.00   0.04   0.05
   8   1    -0.00  -0.00   0.00    -0.00  -0.00   0.00     0.00   0.00  -0.01
   9   1     0.00   0.19   0.25    -0.00   0.29   0.38     0.00  -0.25  -0.33
  10   1    -0.00  -0.19   0.25     0.00  -0.29   0.37    -0.00   0.17  -0.21
  11   1     0.00  -0.31  -0.41    -0.00   0.00   0.00     0.00  -0.15  -0.18
  12   1     0.00   0.32  -0.41     0.00   0.00  -0.00     0.00   0.35  -0.48
  13   1    -0.00   0.19   0.25    -0.00  -0.29  -0.38    -0.00  -0.25  -0.33
  14   1     0.00  -0.19   0.25     0.00   0.29  -0.38     0.00   0.16  -0.21
  15   1    -0.00   0.00   0.00     0.00  -0.00  -0.00     0.00   0.00  -0.01
  16   1    -0.00  -0.02  -0.02     0.00   0.03   0.04     0.00   0.04   0.05
  17   1     0.00   0.02  -0.02    -0.00  -0.03   0.04    -0.00  -0.04   0.06
                     37                     38                     39
                        a                      a                      a 
 Frequencies --  2974.4916              2975.7510              2985.1121
 Red. masses --     1.4938                 1.4822                 1.5190
 Frc consts  --     0.0000                 0.0000                 0.0000
 IR Inten    --    11.9896                 0.0155                99.9767
 Raman Activ --     0.0000                 0.0000                 0.0000
 Depolar     --     0.0000                 0.0000                 0.0000
 Atom AN      X      Y      Z        X      Y      Z        X      Y      Z
   1   6     0.00  -0.01  -0.01     0.01   0.01   0.00    -0.02  -0.03  -0.00
   2   6     0.00  -0.07   0.05     0.00  -0.15  -0.00     0.00   0.13  -0.00
   3   6    -0.00   0.16   0.06    -0.00  -0.00  -0.00     0.00   0.11   0.00
   4   6    -0.00  -0.07   0.05     0.00   0.15  -0.00    -0.00   0.13  -0.00
   5   6    -0.00  -0.01  -0.01     0.01  -0.01   0.00     0.02  -0.03  -0.00
   6   1     0.00  -0.01   0.01     0.00  -0.02   0.03    -0.00   0.03  -0.05
   7   1     0.00   0.02   0.02     0.00  -0.02  -0.03    -0.00   0.03   0.05
   8   1    -0.00  -0.00  -0.00    -0.03  -0.02  -0.00     0.06   0.04   0.00
   9   1     0.00   0.07   0.12    -0.00   0.27   0.41     0.00  -0.22  -0.35
  10   1     0.00   0.20  -0.29    -0.00   0.27  -0.41    -0.00  -0.23   0.35
  11   1     0.00  -0.39  -0.58    -0.00   0.00   0.00     0.00  -0.19  -0.29
  12   1    -0.00  -0.23   0.37    -0.00  -0.00   0.00    -0.00  -0.19   0.29
  13   1    -0.00   0.07   0.11    -0.00  -0.26  -0.41    -0.00  -0.23  -0.35
  14   1    -0.00   0.19  -0.28    -0.00  -0.27   0.41     0.00  -0.23   0.35
  15   1     0.00  -0.00  -0.00    -0.03   0.02  -0.00    -0.06   0.04  -0.00
  16   1    -0.00   0.02   0.02     0.00   0.02   0.03     0.00   0.03   0.05
  17   1    -0.00  -0.01   0.01     0.00   0.02  -0.03     0.00   0.03  -0.05
                     40                     41                     42
                        a                      a                      a 
 Frequencies --  3028.6857              3029.6949              3030.5526
 Red. masses --     1.9576                 1.9592                 1.9287
 Frc consts  --     0.0000                 0.0000                 0.0000
 IR Inten    --     0.0282               120.4980                18.9129
 Raman Activ --     0.0000                 0.0000                 0.0000
 Depolar     --     0.0000                 0.0000                 0.0000
 Atom AN      X      Y      Z        X      Y      Z        X      Y      Z
   1   6     0.00   0.00  -0.21     0.00   0.00  -0.20     0.10   0.18   0.01
   2   6     0.00   0.00  -0.03     0.00   0.00  -0.03     0.00   0.02   0.00
   3   6     0.00   0.00  -0.00     0.00   0.00  -0.02     0.00   0.00   0.00
   4   6     0.00   0.00   0.03    -0.00  -0.00  -0.04     0.00  -0.02   0.00
   5   6     0.00   0.00   0.20     0.00  -0.00  -0.21     0.10  -0.18   0.00
   6   1     0.00  -0.30   0.38     0.00  -0.29   0.37     0.02  -0.18   0.28
   7   1    -0.01   0.29   0.38    -0.01   0.28   0.36     0.02  -0.18  -0.30
   8   1    -0.00  -0.00  -0.03    -0.01  -0.00  -0.03    -0.39  -0.27  -0.00
   9   1     0.00   0.03   0.04     0.00   0.04   0.05    -0.00  -0.03  -0.04
  10   1    -0.00  -0.03   0.04    -0.00  -0.04   0.05    -0.00  -0.02   0.04
  11   1     0.00   0.00   0.00    -0.00   0.02   0.03    -0.00  -0.00  -0.00
  12   1    -0.00  -0.00   0.00    -0.00  -0.02   0.03    -0.00   0.00  -0.00
  13   1     0.00  -0.03  -0.04    -0.00   0.04   0.05    -0.00   0.02   0.04
  14   1    -0.00   0.03  -0.04     0.00  -0.04   0.05    -0.00   0.03  -0.04
  15   1    -0.00   0.00   0.03    -0.00   0.00  -0.03    -0.38   0.27  -0.00
  16   1    -0.00  -0.28  -0.37     0.01   0.29   0.38     0.02   0.18   0.28
  17   1     0.01   0.28  -0.37    -0.01  -0.29   0.38     0.02   0.18  -0.29
                     43                     44                     45
                        a                      a                      a 
 Frequencies --  3032.2688              3036.6084              3037.6431
 Red. masses --     1.9294                 1.2672                 1.2569
 Frc consts  --     0.0000                 0.0000                 0.0000
 IR Inten    --    96.2665                54.9917                 9.8183
 Raman Activ --     0.0000                 0.0000                 0.0000
 Depolar     --     0.0000                 0.0000                 0.0000
 Atom AN      X      Y      Z        X      Y      Z        X      Y      Z
   1   6     0.10   0.17   0.00     0.11  -0.03  -0.00    -0.10   0.04   0.00
   2   6     0.00   0.02   0.00     0.00  -0.00  -0.00    -0.00   0.00   0.00
   3   6    -0.00   0.02   0.00    -0.00  -0.00  -0.00    -0.00   0.01   0.00
   4   6    -0.00   0.03  -0.00     0.00   0.00  -0.00     0.00   0.00   0.00
   5   6    -0.10   0.18  -0.00     0.10   0.03  -0.00     0.10   0.04  -0.00
   6   1     0.02  -0.16   0.27     0.01   0.20  -0.29    -0.01  -0.21   0.29
   7   1     0.02  -0.16  -0.27     0.01   0.20   0.29    -0.01  -0.21  -0.30
   8   1    -0.40  -0.28  -0.00    -0.40  -0.30  -0.00     0.37   0.28   0.00
   9   1    -0.00  -0.03  -0.05     0.00   0.00   0.01    -0.00  -0.00  -0.01
  10   1    -0.00  -0.03   0.05     0.00   0.00  -0.01    -0.00  -0.00   0.01
  11   1     0.00  -0.04  -0.06     0.00   0.00   0.00     0.00  -0.01  -0.02
  12   1    -0.00  -0.04   0.06     0.00   0.00  -0.00    -0.00  -0.01   0.02
  13   1     0.00  -0.04  -0.05     0.00  -0.00  -0.01     0.00  -0.00  -0.01
  14   1     0.00  -0.04   0.05     0.00  -0.00   0.01     0.00  -0.00   0.01
  15   1     0.41  -0.28   0.00    -0.39   0.30  -0.00    -0.38   0.29  -0.00
  16   1    -0.02  -0.17  -0.27     0.01  -0.20  -0.28     0.01  -0.21  -0.30
  17   1    -0.02  -0.17   0.27     0.01  -0.20   0.28     0.01  -0.21   0.30
