      -----------------------------------------------------------      
     |                   =====================                   |     
     |                           x T B                           |     
     |                   =====================                   |     
     |                         S. Grimme                         |     
     |          Mulliken Center for Theoretical Chemistry        |     
     |                    University of Bonn                     |     
      -----------------------------------------------------------      

   * xtb version 6.6.1 (8d0f1dd) compiled by 'stahn@M-Bot' on 2023-08-01

   xtb is free software: you can redistribute it and/or modify it under
   the terms of the GNU Lesser General Public License as published by
   the Free Software Foundation, either version 3 of the License, or
   (at your option) any later version.
   
   xtb is distributed in the hope that it will be useful,
   but WITHOUT ANY WARRANTY; without even the implied warranty of
   MERCHANTABILITY or FITNESS FOR A PARTICULAR PURPOSE.  See the
   GNU Lesser General Public License for more details.
   
   Cite this work as:
   * C. Bannwarth, E. Caldeweyher, S. Ehlert, A. Hansen, P. Pracht,
     J. Seibert, S. Spicher, S. Grimme, WIREs Comput. Mol. Sci., 2020, 11,
     e01493. DOI: 10.1002/wcms.1493
   
   for GFN2-xTB:
   * C. Bannwarth, S. Ehlert and S. Grimme., J. Chem. Theory Comput., 2019,
     15, 1652-1671. DOI: 10.1021/acs.jctc.8b01176
   for GFN1-xTB:
   * S. Grimme, C. Bannwarth, P. Shushkov, J. Chem. Theory Comput., 2017,
     13, 1989-2009. DOI: 10.1021/acs.jctc.7b00118
   for GFN0-xTB:
   * P. Pracht, E. Caldeweyher, S. Ehlert, S. Grimme, ChemRxiv, 2019, preprint.
     DOI: 10.26434/chemrxiv.8326202.v1
   for GFN-FF:
   * S. Spicher and S. Grimme, Angew. Chem. Int. Ed., 2020, 59, 15665-15673.
     DOI: 10.1002/anie.202004239
   
   for ALPB and GBSA implicit solvation:
   * S. Ehlert, M. Stahn, S. Spicher, S. Grimme, J. Chem. Theory Comput.,
     2021, 17, 4250-4261. DOI: 10.1021/acs.jctc.1c00471
   
   for DFT-D4:
   * E. Caldeweyher, C. Bannwarth and S. Grimme, J. Chem. Phys., 2017,
     147, 034112. DOI: 10.1063/1.4993215
   * E. Caldeweyher, S. Ehlert, A. Hansen, H. Neugebauer, S. Spicher,
     C. Bannwarth and S. Grimme, J. Chem. Phys., 2019, 150, 154122.
     DOI: 10.1063/1.5090222
   * E. Caldeweyher, J.-M. Mewes, S. Ehlert and S. Grimme, Phys. Chem. Chem. Phys.
     2020, 22, 8499-8512. DOI: 10.1039/D0CP00502A
   
   for sTDA-xTB:
   * S. Grimme and C. Bannwarth, J. Chem. Phys., 2016, 145, 054103.
     DOI: 10.1063/1.4959605
   
   in the mass-spec context:
   * V. Asgeirsson, C. Bauer and S. Grimme, Chem. Sci., 2017, 8, 4879.
     DOI: 10.1039/c7sc00601b
   * J. Koopman and S. Grimme, ACS Omega 2019, 4, 12, 15120-15133.
     DOI: 10.1021/acsomega.9b02011
   
   for metadynamics refer to:
   * S. Grimme, J. Chem. Theory Comput., 2019, 155, 2847-2862
     DOI: 10.1021/acs.jctc.9b00143
   
   for SPH calculations refer to:
   * S. Spicher and S. Grimme, J. Chem. Theory Comput., 2021, 17, 1701-1714
     DOI: 10.1021/acs.jctc.0c01306
   
   with help from (in alphabetical order)
   P. Atkinson, C. Bannwarth, F. Bohle, G. Brandenburg, E. Caldeweyher
   M. Checinski, S. Dohm, S. Ehlert, S. Ehrlich, I. Gerasimov, C. Hölzer
   A. Katbashev, J. Koopman, C. Lavigne, S. Lehtola, F. März, M. Müller,
   F. Musil, H. Neugebauer, J. Pisarek, C. Plett, P. Pracht, F. Pultar,
   J. Seibert, P. Shushkov, S. Spicher, M. Stahn, M. Steiner, T. Strunk,
   J. Stückrath, T. Rose, and J. Unsleber
   
 * started run on 2024/04/23 at 12:09:58.317     

           -------------------------------------------------
          |                Calculation Setup                |
           -------------------------------------------------

          program call               : xtb unfolded.xyz --gfn 2 --ohess -P 4
          coordinate file            : unfolded.xyz
          omp threads                :                     4

   ID    Z sym.   atoms
    1    6 C      1-5
    2    1 H      6-17

           -------------------------------------------------
          |                 G F N 2 - x T B                 |
           -------------------------------------------------

        Reference                      10.1021/acs.jctc.8b01176
      * Hamiltonian:
        H0-scaling (s, p, d)           1.850000    2.230000    2.230000
        zeta-weighting                 0.500000
      * Dispersion:
        s8                             2.700000
        a1                             0.520000
        a2                             5.000000
        s9                             5.000000
      * Repulsion:
        kExp                           1.500000    1.000000
        rExp                           1.000000
      * Coulomb:
        alpha                          2.000000
        third order                    shell-resolved
        anisotropic                    true
        a3                             3.000000
        a5                             4.000000
        cn-shift                       1.200000
        cn-exp                         4.000000
        max-rad                        5.000000


          ...................................................
          :                      SETUP                      :
          :.................................................:
          :  # basis functions                  32          :
          :  # atomic orbitals                  32          :
          :  # shells                           22          :
          :  # electrons                        32          :
          :  max. iterations                   250          :
          :  Hamiltonian                  GFN2-xTB          :
          :  restarted?                      false          :
          :  GBSA solvation                  false          :
          :  PC potential                    false          :
          :  electronic temp.          300.0000000     K    :
          :  accuracy                    1.0000000          :
          :  -> integral cutoff          0.2500000E+02      :
          :  -> integral neglect         0.1000000E-07      :
          :  -> SCF convergence          0.1000000E-05 Eh   :
          :  -> wf. convergence          0.1000000E-03 e    :
          :  Broyden damping             0.4000000          :
          ...................................................

 iter      E             dE          RMSdq      gap      omega  full diag
   1    -17.0302444 -0.170302E+02  0.258E+00   13.36       0.0  T
   2    -17.0780732 -0.478288E-01  0.138E+00   13.03       1.0  T
   3    -17.0785982 -0.524973E-03  0.737E-01   13.02       1.0  T
   4    -17.0787316 -0.133447E-03  0.894E-02   13.05       1.0  T
   5    -17.0787376 -0.598115E-05  0.488E-02   13.05       1.0  T
   6    -17.0787383 -0.688949E-06  0.298E-03   13.05       8.1  T
   7    -17.0787384 -0.557982E-07  0.121E-03   13.05      20.1  T
   8    -17.0787384 -0.159604E-08  0.237E-04   13.05     102.3  T
   9    -17.0787384 -0.554685E-10  0.880E-05   13.05     275.6  T

   *** convergence criteria satisfied after 9 iterations ***

         #    Occupation            Energy/Eh            Energy/eV
      -------------------------------------------------------------
         1        2.0000           -0.6190232             -16.8445
       ...           ...                  ...                  ...
        10        2.0000           -0.4692884             -12.7700
        11        2.0000           -0.4555530             -12.3962
        12        2.0000           -0.4493001             -12.2261
        13        2.0000           -0.4301141             -11.7040
        14        2.0000           -0.4275898             -11.6353
        15        2.0000           -0.4260520             -11.5935
        16        2.0000           -0.4155142             -11.3067 (HOMO)
        17                          0.0639550               1.7403 (LUMO)
        18                          0.1055348               2.8717
        19                          0.1217402               3.3127
        20                          0.1363302               3.7097
        21                          0.1579498               4.2980
       ...                                ...                  ...
        32                          0.2989143               8.1339
      -------------------------------------------------------------
                  HL-Gap            0.4794692 Eh           13.0470 eV
             Fermi-level           -0.1757796 Eh           -4.7832 eV

 SCC (total)                   0 d,  0 h,  0 min,  0.007 sec
 SCC setup                      ...        0 min,  0.000 sec (  5.474%)
 Dispersion                     ...        0 min,  0.000 sec (  1.706%)
 classical contributions        ...        0 min,  0.000 sec (  0.318%)
 integral evaluation            ...        0 min,  0.000 sec (  6.301%)
 iterations                     ...        0 min,  0.005 sec ( 65.801%)
 molecular gradient             ...        0 min,  0.001 sec ( 15.228%)
 printout                       ...        0 min,  0.000 sec (  4.664%)

         :::::::::::::::::::::::::::::::::::::::::::::::::::::
         ::                     SUMMARY                     ::
         :::::::::::::::::::::::::::::::::::::::::::::::::::::
         :: total energy             -16.828477178323 Eh    ::
         :: gradient norm              0.021209822372 Eh/a0 ::
         :: HOMO-LUMO gap             13.047020345398 eV    ::
         ::.................................................::
         :: SCC energy               -17.078738370478 Eh    ::
         :: -> isotropic ES            0.003244659918 Eh    ::
         :: -> anisotropic ES          0.006103129766 Eh    ::
         :: -> anisotropic XC          0.010781899815 Eh    ::
         :: -> dispersion             -0.008183034062 Eh    ::
         :: repulsion energy           0.250259123813 Eh    ::
         :: add. restraining           0.000000000000 Eh    ::
         :: total charge              -0.000000000000 e     ::
         :::::::::::::::::::::::::::::::::::::::::::::::::::::

      ----------------------------------------------------------- 
     |                   =====================                   |
     |                        A N C O P T                        |
     |                   =====================                   |
     |               Approximate Normal Coordinate               |
     |                Rational Function Optimizer                |
      ----------------------------------------------------------- 

          ...................................................
          :                      SETUP                      :
          :.................................................:
          :   optimization level            normal          :
          :   max. optcycles                   200          :
          :   ANC micro-cycles                  20          :
          :   degrees of freedom                45          :
          :.................................................:
          :   RF solver                   davidson          :
          :   write xtbopt.log                true          :
          :   linear?                        false          :
          :   energy convergence         0.5000000E-05 Eh   :
          :   grad. convergence          0.1000000E-02 Eh/α :
          :   maxmium RF displ.          2.0000000          :
          :   Hlow (freq-cutoff)         0.2000000E-01      :
          :   Hmax (freq-cutoff)         5.0000000          :
          :   S6 in model hess.         70.0000000          :
          ...................................................

generating ANC from model Hessian ...
Using Lindh-Hessian (1995)
 Shifting diagonal of input Hessian by   1.519327019414629E-002
 Lowest  eigenvalues of input Hessian
    0.000000    0.000000    0.000000    0.000000    0.000000    0.000000
    0.020000    0.021272    0.021536    0.029049    0.029835    0.033039
    0.035640    0.058573    0.059238    0.065379    0.067392    0.069743
 Highest eigenvalues
    1.145829    1.173134    1.188037    1.213271    1.256744    1.314939
 

........................................................................
.............................. CYCLE    1 ..............................
........................................................................

 iter      E             dE          RMSdq      gap      omega  full diag
   1    -17.0787384 -0.170787E+02  0.623E-06   13.05       0.0  T
   2    -17.0787384 -0.888178E-13  0.311E-06   13.05    7808.7  T
   3    -17.0787384 -0.355271E-14  0.104E-06   13.05   23420.2  T
     SCC iter.                  ...        0 min,  0.001 sec
     gradient                   ...        0 min,  0.001 sec
 * total energy  :   -16.8284772 Eh     change       -0.5101697E-11 Eh
   gradient norm :     0.0212096 Eh/α   predicted     0.0000000E+00 (-100.00%)
   displ. norm   :     0.1250384 α      lambda       -0.1391976E-02
   maximum displ.:     0.0775312 α      in ANC's #18, #12, #6, ...

........................................................................
.............................. CYCLE    2 ..............................
........................................................................

 iter      E             dE          RMSdq      gap      omega  full diag
   1    -17.0837738 -0.170838E+02  0.157E-01   13.29       0.0  T
   2    -17.0837762 -0.237631E-05  0.900E-02   13.29       1.0  T
   3    -17.0837765 -0.341931E-06  0.436E-03   13.29       5.6  T
   4    -17.0837766 -0.324207E-07  0.155E-03   13.29      15.6  T
   5    -17.0837766 -0.159405E-08  0.812E-04   13.29      29.9  T
   6    -17.0837766 -0.416062E-09  0.336E-05   13.29     721.3  T
     SCC iter.                  ...        0 min,  0.002 sec
     gradient                   ...        0 min,  0.001 sec
 * total energy  :   -16.8293540 Eh     change       -0.8768345E-03 Eh
   gradient norm :     0.0093328 Eh/α   predicted    -0.7068714E-03 ( -19.38%)
   displ. norm   :     0.0438234 α      lambda       -0.1803283E-03
   maximum displ.:     0.0285549 α      in ANC's #18, #6, #12, ...

........................................................................
.............................. CYCLE    3 ..............................
........................................................................

 iter      E             dE          RMSdq      gap      omega  full diag
   1    -17.0867622 -0.170868E+02  0.532E-02   13.34       0.0  T
   2    -17.0867635 -0.129540E-05  0.296E-02   13.34       1.0  T
   3    -17.0867635 -0.403178E-07  0.412E-03   13.34       5.9  T
   4    -17.0867635 -0.137517E-07  0.673E-04   13.34      36.0  T
   5    -17.0867635 -0.121349E-08  0.372E-04   13.34      65.1  T
     SCC iter.                  ...        0 min,  0.001 sec
     gradient                   ...        0 min,  0.001 sec
 * total energy  :   -16.8294517 Eh     change       -0.9770453E-04 Eh
   gradient norm :     0.0020675 Eh/α   predicted    -0.9033627E-04 (  -7.54%)
   displ. norm   :     0.0065456 α      lambda       -0.5704841E-05
   maximum displ.:     0.0049848 α      in ANC's #3, #6, #44, ...

........................................................................
.............................. CYCLE    4 ..............................
........................................................................

 iter      E             dE          RMSdq      gap      omega  full diag
   1    -17.0870729 -0.170871E+02  0.446E-03   13.34       0.0  T
   2    -17.0870730 -0.476831E-07  0.254E-03   13.34       9.5  T
   3    -17.0870730 -0.419195E-09  0.930E-04   13.34      26.1  T
   4    -17.0870730 -0.248015E-09  0.110E-04   13.34     221.0  T
     SCC iter.                  ...        0 min,  0.001 sec
     gradient                   ...        0 min,  0.001 sec
 * total energy  :   -16.8294553 Eh     change       -0.3565652E-05 Eh
   gradient norm :     0.0004120 Eh/α   predicted    -0.2854231E-05 ( -19.95%)
   displ. norm   :     0.0088397 α      lambda       -0.9911528E-06
   maximum displ.:     0.0077098 α      in ANC's #3, #12, #5, ...

   *** GEOMETRY OPTIMIZATION CONVERGED AFTER 4 ITERATIONS ***

------------------------------------------------------------------------
 total energy gain   :        -0.0009781 Eh       -0.6138 kcal/mol
 total RMSD          :         0.0408792 a0        0.0216 Å
 total power (kW/mol):        -0.6420034 (step) -142.0212 (real)
------------------------------------------------------------------------

 ANCopt (total)                0 d,  0 h,  0 min,  0.018 sec
 optimizer setup                ...        0 min,  0.001 sec (  8.197%)
 model hessian                  ...        0 min,  0.004 sec ( 22.343%)
 ANC generation                 ...        0 min,  0.000 sec (  2.390%)
 coordinate transformation      ...        0 min,  0.000 sec (  0.251%)
 single point calculation       ...        0 min,  0.011 sec ( 58.229%)
 optimization log               ...        0 min,  0.000 sec (  1.766%)
 hessian update                 ...        0 min,  0.000 sec (  0.459%)
 rational function              ...        0 min,  0.001 sec (  3.025%)

================
 final structure:
================
17
 xtb: 6.6.1 (8d0f1dd)
C           -2.52814977397691        0.33330867594488       -0.00097231794412
C           -1.26666052810268       -0.52076029925848       -0.00103454057237
C            0.00001180425370        0.33138877176399        0.00266894878213
C            1.26664382795770       -0.52082241494028        0.00080231909027
C            2.52816706389139        0.33319728692652       -0.00143452705325
H           -2.55554948611616        0.97409430427745       -0.87983484611919
H           -2.56124816397147        0.96589244680967        0.88361215010871
H           -3.41614054961722       -0.29479328419268       -0.00677545170691
H           -1.26468681789419       -1.16420594534665       -0.88413931575412
H           -1.26733226996534       -1.16841604676852        0.87898086313598
H           -0.00056612428670        0.97413388029690        0.88643636012593
H            0.00061699476039        0.97962434350543       -0.87709489318885
H            1.26459392213660       -1.16645478368027       -0.88070288601419
H            1.26734858895895       -1.16629780722824        0.88241804775304
H            3.41613900921816       -0.29494539335690        0.00164658408466
H            2.55772725361609        0.97325995806763        0.87787981403954
H            2.55913024913767        0.96650130717956       -0.88557830876727
           -------------------------------------------------
          |                Final Singlepoint                |
           -------------------------------------------------

          ...................................................
          :                      SETUP                      :
          :.................................................:
          :  # basis functions                  32          :
          :  # atomic orbitals                  32          :
          :  # shells                           22          :
          :  # electrons                        32          :
          :  max. iterations                   250          :
          :  Hamiltonian                  GFN2-xTB          :
          :  restarted?                      false          :
          :  GBSA solvation                  false          :
          :  PC potential                    false          :
          :  electronic temp.          300.0000000     K    :
          :  accuracy                    1.0000000          :
          :  -> integral cutoff          0.2500000E+02      :
          :  -> integral neglect         0.1000000E-07      :
          :  -> SCF convergence          0.1000000E-05 Eh   :
          :  -> wf. convergence          0.1000000E-03 e    :
          :  Broyden damping             0.4000000          :
          ...................................................

 iter      E             dE          RMSdq      gap      omega  full diag
   1    -17.0870730 -0.170871E+02  0.417E-05   13.34       0.0  T
   2    -17.0870730 -0.863309E-12  0.230E-05   13.34    1054.6  T
   3    -17.0870730 -0.245137E-12  0.277E-06   13.34    8748.2  T

   *** convergence criteria satisfied after 3 iterations ***

         #    Occupation            Energy/Eh            Energy/eV
      -------------------------------------------------------------
         1        2.0000           -0.6200264             -16.8718
       ...           ...                  ...                  ...
        10        2.0000           -0.4690064             -12.7623
        11        2.0000           -0.4566401             -12.4258
        12        2.0000           -0.4477105             -12.1828
        13        2.0000           -0.4291681             -11.6783
        14        2.0000           -0.4289509             -11.6723
        15        2.0000           -0.4239559             -11.5364
        16        2.0000           -0.4177769             -11.3683 (HOMO)
        17                          0.0725372               1.9738 (LUMO)
        18                          0.1190138               3.2385
        19                          0.1197533               3.2587
        20                          0.1397724               3.8034
        21                          0.1586267               4.3165
       ...                                ...                  ...
        32                          0.3166105               8.6154
      -------------------------------------------------------------
                  HL-Gap            0.4903141 Eh           13.3421 eV
             Fermi-level           -0.1726198 Eh           -4.6972 eV

 SCC (total)                   0 d,  0 h,  0 min,  0.003 sec
 SCC setup                      ...        0 min,  0.000 sec ( 10.152%)
 Dispersion                     ...        0 min,  0.000 sec (  1.465%)
 classical contributions        ...        0 min,  0.000 sec (  0.699%)
 integral evaluation            ...        0 min,  0.000 sec ( 12.915%)
 iterations                     ...        0 min,  0.001 sec ( 29.700%)
 molecular gradient             ...        0 min,  0.001 sec ( 33.261%)
 printout                       ...        0 min,  0.000 sec ( 10.369%)

         :::::::::::::::::::::::::::::::::::::::::::::::::::::
         ::                     SUMMARY                     ::
         :::::::::::::::::::::::::::::::::::::::::::::::::::::
         :: total energy             -16.829455283056 Eh    ::
         :: gradient norm              0.000412403843 Eh/a0 ::
         :: HOMO-LUMO gap             13.342126753632 eV    ::
         ::.................................................::
         :: SCC energy               -17.087072981039 Eh    ::
         :: -> isotropic ES            0.003445661657 Eh    ::
         :: -> anisotropic ES          0.005860509019 Eh    ::
         :: -> anisotropic XC          0.010898362486 Eh    ::
         :: -> dispersion             -0.008205238844 Eh    ::
         :: repulsion energy           0.257615255438 Eh    ::
         :: add. restraining           0.000000000000 Eh    ::
         :: total charge              -0.000000000000 e     ::
         :::::::::::::::::::::::::::::::::::::::::::::::::::::

           ------------------------------------------------- 
          |                Numerical Hessian                |
           ------------------------------------------------- 
step length          :   0.00500
SCC accuracy         :   0.30000
Hessian scale factor :   1.00000
frozen atoms in %    :   0.00000    0
RMS gradient         :   0.00041
estimated CPU  time      0.03 min
estimated wall time      0.01 min

writing file <hessian>.

 projected vibrational frequencies (cm⁻¹)
eigval :       -0.00    -0.00    -0.00     0.00     0.00     0.00
eigval :      100.55   102.19   182.95   231.44   235.85   399.66
eigval :      401.09   771.69   805.76   893.54   915.72   975.58
eigval :      990.43  1066.51  1103.91  1118.02  1154.40  1201.34
eigval :     1240.14  1278.19  1284.60  1285.58  1345.60  1378.84
eigval :     1415.79  1417.50  1496.59  1497.99  1502.44  1505.21
eigval :     1505.23  1507.78  1508.38  2954.86  2962.19  2974.25
eigval :     2974.49  2975.75  2985.11  3028.69  3029.69  3030.55
eigval :     3032.27  3036.61  3037.64
           -------------------------------------------------
          |                Property Printout                |
           -------------------------------------------------

    * Orbital Energies and Occupations

         #    Occupation            Energy/Eh            Energy/eV
      -------------------------------------------------------------
         1        2.0000           -0.6200264             -16.8718
       ...           ...                  ...                  ...
         4        2.0000           -0.5568761             -15.1534
         5        2.0000           -0.5528221             -15.0431
         6        2.0000           -0.5174792             -14.0813
         7        2.0000           -0.4988464             -13.5743
         8        2.0000           -0.4919078             -13.3855
         9        2.0000           -0.4816587             -13.1066
        10        2.0000           -0.4690064             -12.7623
        11        2.0000           -0.4566402             -12.4258
        12        2.0000           -0.4477105             -12.1828
        13        2.0000           -0.4291681             -11.6783
        14        2.0000           -0.4289509             -11.6723
        15        2.0000           -0.4239559             -11.5364
        16        2.0000           -0.4177769             -11.3683 (HOMO)
        17                          0.0725372               1.9738 (LUMO)
        18                          0.1190138               3.2385
        19                          0.1197533               3.2587
        20                          0.1397724               3.8034
        21                          0.1586267               4.3165
        22                          0.1734530               4.7199
        23                          0.1739761               4.7341
        24                          0.1811791               4.9301
        25                          0.1885381               5.1304
        26                          0.1974738               5.3735
        27                          0.2345868               6.3834
       ...                                ...                  ...
        32                          0.3166105               8.6154
      -------------------------------------------------------------
                  HL-Gap            0.4903141 Eh           13.3421 eV
             Fermi-level           -0.1726198 Eh           -4.6972 eV

     #   Z          covCN         q      C6AA      α(0)
     1   6 C        3.752    -0.102    22.504     6.765
     2   6 C        3.801    -0.053    21.524     6.605
     3   6 C        3.803    -0.060    21.645     6.624
     4   6 C        3.801    -0.053    21.524     6.605
     5   6 C        3.752    -0.102    22.504     6.765
     6   1 H        0.925     0.033     2.543     2.494
     7   1 H        0.925     0.033     2.543     2.494
     8   1 H        0.925     0.032     2.554     2.499
     9   1 H        0.924     0.028     2.617     2.530
    10   1 H        0.924     0.028     2.617     2.530
    11   1 H        0.924     0.030     2.583     2.513
    12   1 H        0.924     0.030     2.582     2.513
    13   1 H        0.924     0.028     2.617     2.530
    14   1 H        0.924     0.028     2.617     2.530
    15   1 H        0.925     0.032     2.554     2.499
    16   1 H        0.925     0.033     2.543     2.494
    17   1 H        0.925     0.033     2.543     2.494

 Mol. C6AA /au·bohr⁶  :       1815.772131
 Mol. C8AA /au·bohr⁸  :      37106.739292
 Mol. α(0) /au        :         63.483112


Wiberg/Mayer (AO) data.
largest (>0.10) Wiberg bond orders for each atom

 ---------------------------------------------------------------------------
     #   Z sym  total        # sym  WBO       # sym  WBO       # sym  WBO
 ---------------------------------------------------------------------------
     1   6 C    3.997 --     2 C    1.019     7 H    0.988     6 H    0.988
                             8 H    0.988
     2   6 C    3.998 --     1 C    1.019     3 C    1.008    10 H    0.979
                             9 H    0.979
     3   6 C    3.997 --     4 C    1.008     2 C    1.008    11 H    0.978
                            12 H    0.978
     4   6 C    3.998 --     5 C    1.019     3 C    1.008    14 H    0.979
                            13 H    0.979
     5   6 C    3.997 --     4 C    1.019    17 H    0.988    16 H    0.988
                            15 H    0.988
     6   1 H    0.999 --     1 C    0.988
     7   1 H    0.999 --     1 C    0.988
     8   1 H    0.999 --     1 C    0.988
     9   1 H    0.999 --     2 C    0.979
    10   1 H    0.999 --     2 C    0.979
    11   1 H    0.999 --     3 C    0.978
    12   1 H    0.999 --     3 C    0.978
    13   1 H    0.999 --     4 C    0.979
    14   1 H    0.999 --     4 C    0.979
    15   1 H    0.999 --     5 C    0.988
    16   1 H    0.999 --     5 C    0.988
    17   1 H    0.999 --     5 C    0.988
 ---------------------------------------------------------------------------

Topologies differ in total number of bonds
Writing topology from bond orders to xtbtopo.mol

molecular dipole:
                 x           y           z       tot (Debye)
 q only:        0.000       0.011      -0.000
   full:        0.000       0.010      -0.000       0.024
molecular quadrupole (traceless):
                xx          xy          yy          xz          yz          zz
 q only:        0.244       0.000      -0.001       0.000       0.000      -0.243
  q+dip:       -1.276       0.000       0.012       0.000      -0.001       1.264
   full:       -0.535       0.000      -0.016       0.000      -0.001       0.551

           -------------------------------------------------
          |                Geometry Summary                 |
           -------------------------------------------------

      molecular mass/u    :       72.1489685
   center of mass at/Å    :        0.0000025       0.0008075      -0.0000391
  moments of inertia/u·Å² :        0.2971404E+02   0.2562880E+03   0.2703313E+03
rotational constants/cm⁻¹ :        0.5673288E+00   0.6577613E-01   0.6235917E-01

 * 16 selected distances

     #   Z          #   Z                                           value/Å
     1   6 C        2   6 C                                       1.5234137
     2   6 C        3   6 C                                       1.5266404 (max)
     3   6 C        4   6 C                                       1.5266383
     4   6 C        5   6 C                                       1.5234159
     1   6 C        6   1 H                                       1.0880058
     1   6 C        7   1 H                                       1.0880017
     1   6 C        8   1 H                                       1.0876919
     2   6 C        9   1 H                                       1.0926575
     2   6 C       10   1 H                                       1.0926508
     3   6 C       11   1 H                                       1.0927793
     3   6 C       12   1 H                                       1.0927920
     4   6 C       13   1 H                                       1.0926559
     4   6 C       14   1 H                                       1.0926507
     5   6 C       15   1 H                                       1.0876889 (min)
     5   6 C       16   1 H                                       1.0880018
     5   6 C       17   1 H                                       1.0879996

 * 2 distinct bonds (by element types)

   Z      Z             #   av. dist./Å        max./Å        min./Å
   1 H    6 C          12     1.0902980     1.0927920     1.0876889
   6 C    6 C           4     1.5250271     1.5266404     1.5234137

           -------------------------------------------------
          |               Frequency Printout                |
           -------------------------------------------------
 projected vibrational frequencies (cm⁻¹)
eigval :       -0.00    -0.00    -0.00     0.00     0.00     0.00
eigval :      100.55   102.19   182.95   231.44   235.85   399.66
eigval :      401.09   771.69   805.76   893.54   915.72   975.58
eigval :      990.43  1066.51  1103.91  1118.02  1154.40  1201.34
eigval :     1240.14  1278.19  1284.60  1285.58  1345.60  1378.84
eigval :     1415.79  1417.50  1496.59  1497.99  1502.44  1505.21
eigval :     1505.23  1507.78  1508.38  2954.86  2962.19  2974.25
eigval :     2974.49  2975.75  2985.11  3028.69  3029.69  3030.55
eigval :     3032.27  3036.61  3037.64
 reduced masses (amu)
   1:  6.79   2:  9.62   3:  9.18   4:  8.93   5:  9.39   6: 10.00   7:  5.28   8:  7.81
   9:  8.31  10:  1.80  11:  2.44  12:  8.11  13:  9.51  14:  1.67  15:  2.13  16:  2.44
  17:  5.84  18:  5.73  19:  1.96  20:  8.17  21:  9.24  22:  7.19  23:  7.95  24:  6.34
  25:  3.93  26:  3.63  27:  1.62  28:  2.54  29:  4.33  30:  5.54  31:  3.14  32:  3.23
  33:  1.84  34:  1.96  35:  1.81  36:  1.53  37:  1.54  38:  1.68  39:  1.64  40:  1.91
  41:  1.98  42:  1.99  43:  1.49  44:  1.48  45:  1.52  46:  1.96  47:  1.96  48:  1.93
  49:  1.93  50:  1.27  51:  1.26
 IR intensities (km·mol⁻¹)
   1:  0.00   2:  0.00   3:  0.00   4:  0.00   5:  0.00   6:  0.01   7:  0.00   8:  0.01
   9:  0.22  10:  0.01  11:  0.00  12:  0.02  13:  0.04  14: 11.24  15:  0.00  16:  3.30
  17:  2.81  18:  6.28  19:  0.00  20:  1.48  21:  0.07  22:  1.26  23:  2.27  24:  0.79
  25:  0.00  26:  1.11  27:  0.00  28:  0.03  29:  0.09  30:  1.26  31:  1.12  32:  0.41
  33:  0.25  34:  0.21  35:  0.23  36:  4.80  37:  0.04  38:  1.04  39:  1.29  40:  0.77
  41:  0.00  42:118.03  43: 11.99  44:  0.02  45: 99.98  46:  0.03  47:120.50  48: 18.91
  49: 96.27  50: 54.99  51:  9.82
 Raman intensities (amu)
   1:  0.00   2:  0.00   3:  0.00   4:  0.00   5:  0.00   6:  0.00   7:  0.00   8:  0.00
   9:  0.00  10:  0.00  11:  0.00  12:  0.00  13:  0.00  14:  0.00  15:  0.00  16:  0.00
  17:  0.00  18:  0.00  19:  0.00  20:  0.00  21:  0.00  22:  0.00  23:  0.00  24:  0.00
  25:  0.00  26:  0.00  27:  0.00  28:  0.00  29:  0.00  30:  0.00  31:  0.00  32:  0.00
  33:  0.00  34:  0.00  35:  0.00  36:  0.00  37:  0.00  38:  0.00  39:  0.00  40:  0.00
  41:  0.00  42:  0.00  43:  0.00  44:  0.00  45:  0.00  46:  0.00  47:  0.00  48:  0.00
  49:  0.00  50:  0.00  51:  0.00
 output can be read by thermo (or use thermo option).
 writing <g98.out> molden fake output.
 recommended (thermochemical) frequency scaling factor: 1.0
           -------------------------------------------------
          |             Thermodynamic Functions             |
           -------------------------------------------------

Molecule has the following symmetry elements: (C2) 2*(sigma) 
It seems to be the C2v point group
c2v symmetry found (for desy threshold:  0.10E+00) used in thermo

          ...................................................
          :                      SETUP                      :
          :.................................................:
          :  # frequencies                          45      :
          :  # imaginary freq.                       0      :
          :  linear?                             false      :
          :  only rotor calc.                    false      :
          :  symmetry                              c2v      :
          :  rotational number                       2      :
          :  scaling factor                  1.0000000      :
          :  rotor cutoff                   50.0000000 cm⁻¹ :
          :  imag. cutoff                  -20.0000000 cm⁻¹ :
          :.................................................:

    mode    ω/cm⁻¹     T·S(HO)/kcal·mol⁻¹    T·S(FR)/kcal·mol⁻¹   T·S(vib)
   ------------------------------------------------------------------------
       1    100.55    -1.02670 ( 94.24%)    -0.84931 (  5.76%)    -1.01648
       2    102.19    -1.01733 ( 94.58%)    -0.84453 (  5.42%)    -1.00796
       3    182.95    -0.68516 ( 99.45%)    -0.67211 (  0.55%)    -0.68509
       4    231.44    -0.55686 ( 99.78%)    -0.60250 (  0.22%)    -0.55696
       5    235.85    -0.54679 ( 99.80%)    -0.59691 (  0.20%)    -0.54689
   ------------------------------------------------------------------------

   temp. (K)  partition function   enthalpy   heat capacity  entropy
                                   cal/mol     cal/K/mol   cal/K/mol   J/K/mol
 298.15  VIB   38.8                 2677.558     18.186     16.184
         ROT  0.548E+05              888.752      2.981     24.665
         INT  0.212E+07             3566.311     21.167     40.849
         TR   0.593E+27             1481.254      4.968     38.727
         TOT                        5047.5646    26.1351    79.5767   332.9490

       T/K    H(0)-H(T)+PV         H(T)/Eh          T*S/Eh         G(T)/Eh
   ------------------------------------------------------------------------
    298.15    0.804381E-02    0.167157E+00    0.378095E-01    0.129348E+00
   ------------------------------------------------------------------------

         :::::::::::::::::::::::::::::::::::::::::::::::::::::
         ::                  THERMODYNAMIC                  ::
         :::::::::::::::::::::::::::::::::::::::::::::::::::::
         :: total free energy         -16.700107768828 Eh   ::
         ::.................................................::
         :: total energy              -16.829455283056 Eh   ::
         :: zero point energy           0.159113180586 Eh   ::
         :: G(RRHO) w/o ZPVE           -0.029765666358 Eh   ::
         :: G(RRHO) contrib.            0.129347514228 Eh   ::
         :::::::::::::::::::::::::::::::::::::::::::::::::::::
 
 normal mode %tage of torsion character
   1:  0.00   2:  0.00   3:  0.00   4:  0.00   5:  0.00   6:  0.00   7:  0.63   8:  0.53
   9:  0.20  10:  0.91  11:  0.87  12:  0.08  13:  0.03  14:  0.51  15:  0.56  16:  0.49
  17:  0.10  18:  0.08  19:  0.32  20:  0.07  21:  0.02  22:  0.03  23:  0.07  24:  0.57
  25:  0.29  26:  0.07  27:  0.17  28:  0.20  29:  0.07  30:  0.06  31:  0.00  32:  0.00
  33:  0.65  34:  0.65  35:  0.60  36:  0.93  37:  0.93  38:  0.85  39:  0.85  40:  0.43
  41:  0.29  42:  0.02  43:  0.01  44:  0.01  45:  0.01  46:  0.06  47:  0.07  48:  0.04
  49:  0.03  50:  0.00  51:  0.00
 recommended # of modes for mode following           4

optimized geometry written to: xtbopt.xyz


           -------------------------------------------------
          | TOTAL ENERGY              -16.829455283056 Eh   |
          | TOTAL ENTHALPY            -16.662298296257 Eh   |
          | TOTAL FREE ENERGY         -16.700107768828 Eh   |
          | GRADIENT NORM               0.000412401246 Eh/α |
          | HOMO-LUMO GAP              13.342126839138 eV   |
           -------------------------------------------------

------------------------------------------------------------------------
 * finished run on 2024/04/23 at 12:09:58.571     
------------------------------------------------------------------------
 total:
 * wall-time:     0 d,  0 h,  0 min,  0.253 sec
 *  cpu-time:     0 d,  0 h,  0 min,  0.801 sec
 * ratio c/w:     3.160 speedup
 SCF:
 * wall-time:     0 d,  0 h,  0 min,  0.008 sec
 *  cpu-time:     0 d,  0 h,  0 min,  0.026 sec
 * ratio c/w:     3.408 speedup
 ANC optimizer:
 * wall-time:     0 d,  0 h,  0 min,  0.034 sec
 *  cpu-time:     0 d,  0 h,  0 min,  0.114 sec
 * ratio c/w:     3.338 speedup
 analytical hessian:
 * wall-time:     0 d,  0 h,  0 min,  0.127 sec
 *  cpu-time:     0 d,  0 h,  0 min,  0.495 sec
 * ratio c/w:     3.892 speedup

