17
 energy: -16.828477178328 gnorm: 0.021209642579 xtb: 6.6.1 (8d0f1dd)
C           -2.54012300000000        0.32908600000000       -0.00122100000000
C           -1.27631200000000       -0.51669100000000       -0.00064700000000
C            0.00007600000000        0.32636100000000        0.00322700000000
C            1.27613900000000       -0.51677500000000        0.00080300000000
C            2.54021500000000        0.32903900000000       -0.00187500000000
H           -2.57901000000000        0.98109600000000       -0.87644400000000
H           -2.58599900000000        0.97194200000000        0.88032200000000
H           -3.44494300000000       -0.28377200000000       -0.00777200000000
H           -1.26732300000000       -1.18392700000000       -0.87323400000000
H           -1.27066100000000       -1.18805300000000        0.86873600000000
H           -0.00039200000000        0.99161600000000        0.87576000000000
H            0.00071000000000        0.99762700000000       -0.86469400000000
H            1.26717800000000       -1.18582600000000       -0.87041300000000
H            1.27014100000000       -1.18620900000000        0.87173200000000
H            3.44515900000000       -0.28379400000000        0.00225200000000
H            2.58157000000000        0.98050200000000        0.87366500000000
H            2.58362000000000        0.97248300000000       -0.88331900000000
17
 energy: -16.829354012793 gnorm: 0.009332803498 xtb: 6.6.1 (8d0f1dd)
C           -2.52988482275669        0.33158755485029       -0.00108757497845
C           -1.26931222381391       -0.51854906756147       -0.00083746535456
C            0.00004230857696        0.33104732009541        0.00302791174722
C            1.26925369378884       -0.51863650512168        0.00075960771683
C            2.52991262823600        0.33147451212978       -0.00164444220638
H           -2.56342905022884        0.97564345957483       -0.87970050172051
H           -2.57001306408133        0.96685176683050        0.88361993142145
H           -3.42235448388760       -0.29355177050954       -0.00751728355541
H           -1.26605987329802       -1.16931771446339       -0.88231558404215
H           -1.26912709116491       -1.17340781588969        0.87758037153333
H           -0.00047450986979        0.97993991168506        0.88541345663962
H            0.00054978852047        0.98591190500025       -0.87493803831458
H            1.26599760278643       -1.17136556172653       -0.87926505258238
H            1.26909729182502       -1.17150388039533        0.88066861398906
H            3.42239972033879       -0.29367897798258        0.00204712161885
H            2.56582192947016        0.97507234598018        0.87722384936443
H            2.56762515555842        0.96718751750391       -0.88615692127637
17
 energy: -16.829451717323 gnorm: 0.002067458565 xtb: 6.6.1 (8d0f1dd)
C           -2.52803558050161        0.33289943319689       -0.00102539933756
C           -1.26690644945777       -0.51994028471130       -0.00095057995446
C            0.00001769220391        0.33147408119251        0.00281778592265
C            1.26688799147553       -0.52000705785872        0.00079290857051
C            2.52805192689087        0.33278483187420       -0.00153125817855
H           -2.55662139281849        0.97400492764402       -0.87992565789087
H           -2.56268525351310        0.96554090486120        0.88376777640481
H           -3.41599265668492       -0.29576123647816       -0.00711046004727
H           -1.26468623550018       -1.16389186066411       -0.88425036469978
H           -1.26748441608741       -1.16806558468450        0.87928518957162
H           -0.00052711016356        0.97431805981891        0.88696942526253
H            0.00057497654560        0.98005233172453       -0.87715299875805
H            1.26460023548743       -1.16606488765315       -0.88096092425122
H            1.26752334156182       -1.16603254120598        0.88256908006455
H            3.41598831625068       -0.29591326243674        0.00181556319744
H            2.55887286055204        0.97327534749372        0.87773315254243
H            2.56046675375917        0.96603179788668       -0.88596523841879
17
 energy: -16.829455282975 gnorm: 0.000412021021 xtb: 6.6.1 (8d0f1dd)
C           -2.52814977397691        0.33330867594488       -0.00097231794412
C           -1.26666052810268       -0.52076029925848       -0.00103454057237
C            0.00001180425370        0.33138877176399        0.00266894878213
C            1.26664382795770       -0.52082241494028        0.00080231909027
C            2.52816706389139        0.33319728692652       -0.00143452705325
H           -2.55554948611616        0.97409430427745       -0.87983484611919
H           -2.56124816397147        0.96589244680967        0.88361215010871
H           -3.41614054961722       -0.29479328419268       -0.00677545170691
H           -1.26468681789419       -1.16420594534665       -0.88413931575412
H           -1.26733226996534       -1.16841604676852        0.87898086313598
H           -0.00056612428670        0.97413388029690        0.88643636012593
H            0.00061699476039        0.97962434350543       -0.87709489318885
H            1.26459392213660       -1.16645478368027       -0.88070288601419
H            1.26734858895895       -1.16629780722824        0.88241804775304
H            3.41613900921816       -0.29494539335690        0.00164658408466
H            2.55772725361609        0.97325995806763        0.87787981403954
H            2.55913024913767        0.96650130717956       -0.88557830876727
