 Entering Gaussian System
 *********************************************
 Gaussian 98:
 frequency output generated by the xtb code
 *********************************************
                         Standard orientation:
 --------------------------------------------------------------------
  Center     Atomic     Atomic              Coordinates (Angstroms)
  Number     Number      Type              X           Y           Z
 --------------------------------------------------------------------
    1          6             0        4.440511   -0.269332   -0.038231
    2          6             0        3.149583    0.539497    0.006550
    3          6             0        1.914126   -0.357700    0.006006
    4          6             0        0.617788    0.448644    0.028240
    5          6             0       -0.617817   -0.448366    0.027216
    6          6             0       -1.914236    0.357857    0.005335
    7          6             0       -3.149533   -0.539564    0.007719
    8          6             0       -4.440665    0.268886   -0.037954
    9          1             0        4.507996   -0.928445    0.824645
   10          1             0        5.306020    0.389248   -0.035852
   11          1             0        4.476425   -0.880217   -0.937744
   12          1             0        3.142282    1.162042    0.904180
   13          1             0        3.109973    1.206513   -0.857747
   14          1             0        1.929376   -0.990286   -0.884805
   15          1             0        1.945817   -1.015876    0.877585
   16          1             0        0.602369    1.083962    0.917063
   17          1             0        0.587323    1.104653   -0.845131
   18          1             0       -0.586779   -1.103162   -0.847040
   19          1             0       -0.602909   -1.084923    0.915166
   20          1             0       -1.945331    1.016606    0.876505
   21          1             0       -1.930273    0.989843   -0.885883
   22          1             0       -3.110150   -1.208104   -0.855405
   23          1             0       -3.141708   -1.160522    0.906448
   24          1             0       -4.504885    0.934019    0.820548
   25          1             0       -5.306112   -0.389698   -0.027634
   26          1             0       -4.480085    0.873458   -0.941571
 --------------------------------------------------------------------
     1 basis functions        1 primitive gaussians
     1 alpha electrons        1 beta electrons
 
 Harmonic frequencies (cm**-1), IR intensities (km*mol⁻¹),
 Raman scattering activities (A**4/amu), Raman depolarization ratios,
 reduced masses (AMU), force constants (mDyne/A) and normal coordinates:
                      1                      2                      3
                        a                      a                      a 
 Frequencies --    44.2185                64.0795                80.7178
 Red. masses --     8.9393                 5.0796                 9.2132
 Frc consts  --     0.0000                 0.0000                 0.0000
 IR Inten    --     0.0015                 0.0000                 0.0593
 Raman Activ --     0.0000                 0.0000                 0.0000
 Depolar     --     0.0000                 0.0000                 0.0000
 Atom AN      X      Y      Z        X      Y      Z        X      Y      Z
   1   6    -0.01   0.00  -0.46     0.00   0.01  -0.06     0.09   0.42  -0.00
   2   6    -0.00  -0.00  -0.02     0.00  -0.01   0.36    -0.13   0.08  -0.01
   3   6    -0.00  -0.00   0.16    -0.00  -0.00  -0.22     0.07  -0.19   0.02
   4   6     0.00  -0.00   0.36     0.00  -0.00  -0.07    -0.03  -0.35   0.00
   5   6    -0.00   0.00   0.36    -0.00  -0.00  -0.07    -0.03  -0.35  -0.00
   6   6     0.00   0.00   0.16     0.00  -0.00  -0.22     0.07  -0.19  -0.02
   7   6     0.00   0.00  -0.02    -0.00   0.01   0.36    -0.13   0.08   0.01
   8   6     0.01  -0.00  -0.46    -0.00  -0.01  -0.06     0.09   0.42   0.00
   9   1     0.06  -0.04  -0.17    -0.02  -0.16  -0.14     0.08   0.13   0.00
  10   1    -0.00   0.00  -0.16     0.00  -0.00   0.13    -0.03   0.19  -0.01
  11   1    -0.07   0.04  -0.16     0.02   0.17  -0.13     0.07   0.12   0.00
  12   1     0.06  -0.04   0.02    -0.01  -0.16   0.21    -0.08   0.03  -0.01
  13   1    -0.06   0.03   0.02     0.01   0.14   0.22    -0.09   0.01  -0.01
  14   1    -0.04   0.01   0.04     0.04   0.11  -0.14     0.05  -0.06   0.01
  15   1     0.04  -0.01   0.04    -0.04  -0.11  -0.14     0.05  -0.05   0.01
  16   1     0.02  -0.02   0.12     0.01  -0.03  -0.00    -0.02  -0.10  -0.00
  17   1    -0.02   0.02   0.12    -0.01   0.03  -0.00    -0.02  -0.10   0.00
  18   1     0.02  -0.02   0.12     0.01  -0.03  -0.00    -0.02  -0.10  -0.00
  19   1    -0.02   0.02   0.12    -0.02   0.03  -0.00    -0.02  -0.10   0.00
  20   1    -0.04   0.01   0.04     0.04   0.11  -0.14     0.05  -0.05  -0.01
  21   1     0.04  -0.01   0.04    -0.04  -0.11  -0.14     0.05  -0.06  -0.01
  22   1     0.06  -0.03   0.02    -0.01  -0.14   0.22    -0.09   0.02   0.01
  23   1    -0.06   0.04   0.02     0.01   0.16   0.21    -0.08   0.03   0.01
  24   1    -0.06   0.04  -0.17     0.02   0.16  -0.14     0.08   0.13  -0.00
  25   1     0.00  -0.00  -0.16    -0.00   0.00   0.13    -0.03   0.19   0.01
  26   1     0.07  -0.04  -0.16    -0.02  -0.17  -0.13     0.07   0.12  -0.00
                      4                      5                      6
                        a                      a                      a 
 Frequencies --   100.9042               127.1071               146.2214
 Red. masses --     7.9377                 5.9413                 7.1975
 Frc consts  --     0.0000                 0.0000                 0.0000
 IR Inten    --     0.0000                 0.0001                 0.0036
 Raman Activ --     0.0000                 0.0000                 0.0000
 Depolar     --     0.0000                 0.0000                 0.0000
 Atom AN      X      Y      Z        X      Y      Z        X      Y      Z
   1   6    -0.01  -0.00  -0.29    -0.00  -0.01  -0.00     0.00  -0.01   0.14
   2   6     0.01  -0.00   0.21     0.00   0.01  -0.16    -0.00   0.00  -0.18
   3   6     0.00  -0.00   0.43     0.00   0.01   0.17    -0.01   0.01  -0.33
   4   6     0.00   0.01   0.02     0.00   0.00   0.41     0.00   0.00   0.35
   5   6     0.00   0.01  -0.02     0.00   0.00  -0.41    -0.00  -0.00   0.35
   6   6     0.00  -0.00  -0.43     0.00   0.01  -0.17     0.01  -0.01  -0.33
   7   6     0.01  -0.00  -0.21     0.00   0.01   0.16     0.00  -0.00  -0.18
   8   6    -0.01  -0.00   0.29    -0.00  -0.01   0.00    -0.00   0.01   0.14
   9   1     0.06  -0.05  -0.13     0.04   0.12   0.09    -0.04   0.04   0.08
  10   1    -0.00  -0.00  -0.11    -0.00  -0.00  -0.14     0.00  -0.00   0.05
  11   1    -0.07   0.05  -0.13    -0.05  -0.13   0.08     0.04  -0.05   0.07
  12   1     0.08  -0.03   0.08     0.02   0.08  -0.10    -0.05   0.02  -0.06
  13   1    -0.07   0.03   0.09    -0.02  -0.07  -0.10     0.05  -0.01  -0.06
  14   1     0.02  -0.08   0.18    -0.05  -0.00   0.05    -0.06   0.12  -0.18
  15   1    -0.02   0.08   0.19     0.05   0.01   0.05     0.05  -0.11  -0.18
  16   1    -0.05   0.06  -0.04    -0.05  -0.16   0.23     0.07  -0.09   0.17
  17   1     0.05  -0.06  -0.04     0.05   0.16   0.23    -0.07   0.09   0.17
  18   1     0.05  -0.06   0.04     0.05   0.16  -0.23     0.07  -0.09   0.17
  19   1    -0.05   0.06   0.04    -0.05  -0.16  -0.23    -0.07   0.09   0.17
  20   1    -0.02   0.08  -0.19     0.05   0.01  -0.05    -0.05   0.11  -0.18
  21   1     0.02  -0.08  -0.18    -0.05  -0.00  -0.05     0.06  -0.12  -0.18
  22   1    -0.07   0.03  -0.09    -0.01  -0.07   0.10    -0.04   0.01  -0.06
  23   1     0.08  -0.03  -0.08     0.02   0.08   0.10     0.05  -0.02  -0.06
  24   1     0.06  -0.05   0.13     0.04   0.12  -0.09     0.04  -0.04   0.08
  25   1    -0.00  -0.00   0.11    -0.00  -0.00   0.14    -0.00   0.00   0.05
  26   1    -0.07   0.05   0.12    -0.05  -0.13  -0.08    -0.04   0.05   0.07
                      7                      8                      9
                        a                      a                      a 
 Frequencies --   199.4124               232.0756               234.2651
 Red. masses --     8.8433                 2.0618                 2.2727
 Frc consts  --     0.0000                 0.0000                 0.0000
 IR Inten    --     0.0000                 0.0119                 0.0002
 Raman Activ --     0.0000                 0.0000                 0.0000
 Depolar     --     0.0000                 0.0000                 0.0000
 Atom AN      X      Y      Z        X      Y      Z        X      Y      Z
   1   6    -0.22  -0.26  -0.00    -0.01  -0.01  -0.03     0.00   0.00  -0.03
   2   6     0.07   0.22   0.00     0.00   0.00   0.19     0.00  -0.01   0.19
   3   6    -0.03   0.37   0.01    -0.00   0.01  -0.09    -0.00  -0.00  -0.11
   4   6    -0.12   0.18  -0.01    -0.01   0.01  -0.05     0.00   0.01  -0.09
   5   6     0.12  -0.18  -0.01     0.00  -0.01  -0.06     0.00   0.01   0.09
   6   6     0.03  -0.37   0.01     0.00  -0.01  -0.09    -0.00  -0.00   0.11
   7   6    -0.07  -0.22   0.00    -0.00  -0.00   0.19     0.00  -0.01  -0.19
   8   6     0.22   0.26  -0.00     0.01   0.01  -0.03     0.00   0.00   0.03
   9   1    -0.15  -0.09  -0.01     0.20   0.24   0.16     0.21   0.24   0.16
  10   1     0.02  -0.18   0.01    -0.01   0.00  -0.39    -0.01   0.01  -0.39
  11   1    -0.13  -0.07  -0.00    -0.21  -0.25   0.15    -0.20  -0.24   0.15
  12   1     0.07   0.06   0.00     0.01  -0.06   0.09     0.00  -0.07   0.10
  13   1     0.07   0.06  -0.00     0.00   0.06   0.10     0.00   0.06   0.10
  14   1    -0.00   0.10   0.00     0.02   0.06  -0.06     0.02   0.06  -0.07
  15   1    -0.01   0.11   0.00    -0.02  -0.05  -0.07    -0.03  -0.06  -0.07
  16   1    -0.08   0.05  -0.00    -0.00  -0.01  -0.01     0.02   0.03  -0.04
  17   1    -0.08   0.05  -0.00    -0.00   0.01  -0.01    -0.02  -0.02  -0.04
  18   1     0.08  -0.05  -0.00     0.00  -0.01  -0.01    -0.02  -0.02   0.04
  19   1     0.08  -0.05  -0.00     0.00   0.01  -0.01     0.02   0.03   0.04
  20   1     0.01  -0.11   0.00     0.02   0.05  -0.07    -0.03  -0.06   0.07
  21   1     0.00  -0.10   0.00    -0.02  -0.06  -0.07     0.02   0.06   0.07
  22   1    -0.07  -0.06  -0.00    -0.00  -0.06   0.10     0.00   0.06  -0.10
  23   1    -0.07  -0.06   0.00    -0.01   0.06   0.10     0.00  -0.07  -0.10
  24   1     0.15   0.09  -0.01    -0.20  -0.24   0.16     0.20   0.23  -0.16
  25   1    -0.02   0.18   0.01     0.01  -0.01  -0.40    -0.01   0.01   0.38
  26   1     0.13   0.07  -0.01     0.21   0.25   0.15    -0.20  -0.24  -0.14
                     10                     11                     12
                        a                      a                      a 
 Frequencies --   279.0418               341.7432               469.5102
 Red. masses --     9.9361                 8.5959                 8.7278
 Frc consts  --     0.0000                 0.0000                 0.0000
 IR Inten    --     0.0001                 0.3007                 0.0027
 Raman Activ --     0.0000                 0.0000                 0.0000
 Depolar     --     0.0000                 0.0000                 0.0000
 Atom AN      X      Y      Z        X      Y      Z        X      Y      Z
   1   6    -0.41   0.06   0.01    -0.24  -0.12   0.00    -0.22  -0.01   0.00
   2   6    -0.40  -0.01   0.00     0.07   0.34   0.01     0.01   0.26   0.01
   3   6    -0.23  -0.15  -0.00     0.21   0.14  -0.01     0.33  -0.18  -0.01
   4   6    -0.05  -0.01  -0.01    -0.02  -0.30  -0.01     0.27  -0.25  -0.00
   5   6     0.05   0.01  -0.01    -0.02  -0.30   0.01    -0.16   0.29  -0.00
   6   6     0.23   0.15  -0.00     0.21   0.14   0.01    -0.30   0.12  -0.01
   7   6     0.40   0.01   0.00     0.07   0.34  -0.01    -0.07  -0.26   0.01
   8   6     0.41  -0.06   0.01    -0.24  -0.12  -0.00     0.14   0.03   0.00
   9   1    -0.12   0.02   0.00    -0.16  -0.04   0.00    -0.15  -0.01   0.00
  10   1    -0.12   0.02   0.00     0.03  -0.16  -0.01     0.02  -0.12  -0.00
  11   1    -0.12   0.02   0.00    -0.16  -0.05   0.00    -0.15  -0.02   0.00
  12   1    -0.14  -0.00   0.00     0.04   0.09   0.01    -0.01   0.07   0.00
  13   1    -0.14  -0.01   0.00     0.04   0.09   0.00    -0.02   0.07  -0.00
  14   1    -0.07  -0.04  -0.00     0.12   0.04  -0.00     0.16  -0.04  -0.01
  15   1    -0.07  -0.04   0.00     0.12   0.04  -0.00     0.16  -0.05  -0.00
  16   1    -0.00  -0.00  -0.00    -0.04  -0.08  -0.01     0.14  -0.07  -0.00
  17   1    -0.00  -0.01  -0.00    -0.04  -0.09  -0.00     0.14  -0.06   0.00
  18   1     0.00   0.01  -0.00    -0.04  -0.09   0.00    -0.09   0.07   0.00
  19   1     0.00   0.00  -0.00    -0.04  -0.08   0.01    -0.09   0.08  -0.00
  20   1     0.07   0.04   0.00     0.12   0.04   0.01    -0.16   0.03  -0.00
  21   1     0.07   0.04  -0.00     0.12   0.04   0.00    -0.15   0.03  -0.00
  22   1     0.14   0.01  -0.00     0.04   0.09  -0.00    -0.01  -0.07  -0.00
  23   1     0.14   0.00   0.00     0.04   0.09  -0.01    -0.01  -0.07   0.00
  24   1     0.12  -0.02   0.00    -0.16  -0.04  -0.00     0.12   0.02  -0.00
  25   1     0.12  -0.02   0.00     0.03  -0.16   0.01    -0.04   0.12  -0.00
  26   1     0.12  -0.02   0.00    -0.16  -0.05  -0.00     0.12   0.02   0.00
                     13                     14                     15
                        a                      a                      a 
 Frequencies --   469.5431               768.1644               773.0483
 Red. masses --     9.4002                 1.5898                 1.7870
 Frc consts  --     0.0000                 0.0000                 0.0000
 IR Inten    --     0.1268                15.8434                 0.0090
 Raman Activ --     0.0000                 0.0000                 0.0000
 Depolar     --     0.0000                 0.0000                 0.0000
 Atom AN      X      Y      Z        X      Y      Z        X      Y      Z
   1   6     0.26  -0.06  -0.01     0.00  -0.00   0.00    -0.00   0.00  -0.01
   2   6     0.21   0.01  -0.00     0.00  -0.00   0.05    -0.00   0.00  -0.12
   3   6    -0.06   0.20   0.00     0.00  -0.00   0.09    -0.00   0.00  -0.13
   4   6    -0.38  -0.19  -0.00    -0.00  -0.00   0.12     0.00  -0.00  -0.06
   5   6    -0.44  -0.12   0.00     0.00   0.00   0.12     0.00  -0.00   0.06
   6   6    -0.14   0.24  -0.01    -0.00   0.00   0.09    -0.00   0.00   0.13
   7   6     0.20  -0.06   0.00    -0.00   0.00   0.05    -0.00   0.00   0.12
   8   6     0.31  -0.05   0.01    -0.00   0.00   0.00    -0.00   0.00   0.01
   9   1     0.09  -0.01  -0.00     0.04  -0.04  -0.03    -0.09   0.07   0.06
  10   1     0.06   0.00  -0.00     0.00  -0.00  -0.01     0.00  -0.00   0.04
  11   1     0.09  -0.01  -0.00    -0.04   0.04  -0.03     0.09  -0.08   0.05
  12   1     0.09   0.00  -0.00     0.02   0.14  -0.09    -0.02  -0.26   0.15
  13   1     0.10   0.01   0.00    -0.03  -0.14  -0.10     0.03   0.25   0.16
  14   1    -0.00   0.05   0.00    -0.03   0.24  -0.15    -0.01  -0.28   0.16
  15   1    -0.00   0.05  -0.00     0.03  -0.23  -0.16     0.01   0.27   0.17
  16   1    -0.16  -0.05  -0.00    -0.00   0.30  -0.19     0.08  -0.12   0.07
  17   1    -0.16  -0.05   0.00    -0.00  -0.29  -0.19    -0.07   0.11   0.07
  18   1    -0.19  -0.03  -0.00     0.00   0.29  -0.19    -0.07   0.11  -0.07
  19   1    -0.19  -0.03   0.00     0.00  -0.30  -0.19     0.08  -0.12  -0.07
  20   1    -0.05   0.06   0.00    -0.03   0.23  -0.16     0.01   0.27  -0.17
  21   1    -0.05   0.06  -0.00     0.03  -0.24  -0.15    -0.01  -0.28  -0.16
  22   1     0.10  -0.01  -0.00     0.03   0.14  -0.10     0.03   0.25  -0.16
  23   1     0.10  -0.01   0.00    -0.02  -0.14  -0.09    -0.02  -0.26  -0.15
  24   1     0.13  -0.01   0.00    -0.04   0.04  -0.03    -0.09   0.07  -0.06
  25   1     0.05   0.03   0.00    -0.00   0.00  -0.01     0.00  -0.00  -0.04
  26   1     0.12  -0.01   0.00     0.04  -0.04  -0.03     0.09  -0.08  -0.05
                     16                     17                     18
                        a                      a                      a 
 Frequencies --   794.4382               840.2965               903.3237
 Red. masses --     2.1583                 2.5629                 2.7125
 Frc consts  --     0.0000                 0.0000                 0.0000
 IR Inten    --     3.6776                 0.0026                 2.0325
 Raman Activ --     0.0000                 0.0000                 0.0000
 Depolar     --     0.0000                 0.0000                 0.0000
 Atom AN      X      Y      Z        X      Y      Z        X      Y      Z
   1   6     0.00  -0.00   0.03    -0.00   0.00  -0.07     0.00  -0.00   0.12
   2   6     0.00  -0.00   0.17    -0.00   0.00  -0.16     0.00  -0.00   0.05
   3   6    -0.00   0.00   0.05     0.00  -0.00   0.14    -0.00   0.00  -0.22
   4   6    -0.00   0.00  -0.14     0.00  -0.00   0.15     0.00   0.00   0.12
   5   6     0.00  -0.00  -0.14     0.00  -0.00  -0.15    -0.00  -0.00   0.12
   6   6     0.00  -0.00   0.05     0.00  -0.00  -0.14     0.00  -0.00  -0.22
   7   6    -0.00   0.00   0.17    -0.00   0.00   0.16    -0.00   0.00   0.05
   8   6    -0.00   0.00   0.03    -0.00   0.00   0.07    -0.00   0.00   0.12
   9   1     0.14  -0.11  -0.09    -0.18   0.13   0.09     0.20  -0.13  -0.09
  10   1    -0.00   0.00  -0.07    -0.00  -0.00   0.10     0.00   0.00  -0.11
  11   1    -0.14   0.11  -0.07     0.18  -0.13   0.08    -0.20   0.14  -0.08
  12   1    -0.02   0.28  -0.15     0.11  -0.19   0.09    -0.20   0.05  -0.02
  13   1     0.01  -0.27  -0.17    -0.11   0.18   0.11     0.20  -0.05  -0.03
  14   1     0.11   0.08  -0.05    -0.12   0.15  -0.08    -0.03  -0.21   0.09
  15   1    -0.11  -0.08  -0.05     0.12  -0.15  -0.09     0.03   0.20   0.10
  16   1    -0.06  -0.21   0.12    -0.12   0.17  -0.09     0.17   0.12  -0.05
  17   1     0.06   0.21   0.12     0.12  -0.17  -0.09    -0.16  -0.12  -0.05
  18   1    -0.06  -0.21   0.12     0.12  -0.17   0.09     0.16   0.12  -0.05
  19   1     0.06   0.21   0.12    -0.12   0.17   0.09    -0.17  -0.12  -0.05
  20   1     0.11   0.08  -0.05     0.12  -0.15   0.09    -0.03  -0.20   0.10
  21   1    -0.11  -0.08  -0.05    -0.12   0.15   0.08     0.03   0.21   0.09
  22   1    -0.01   0.27  -0.17    -0.11   0.18  -0.11    -0.20   0.05  -0.03
  23   1     0.02  -0.28  -0.15     0.11  -0.19  -0.09     0.20  -0.05  -0.02
  24   1    -0.14   0.11  -0.09    -0.18   0.13  -0.09    -0.20   0.13  -0.09
  25   1     0.00  -0.00  -0.07    -0.00  -0.00  -0.10    -0.00  -0.00  -0.11
  26   1     0.14  -0.11  -0.07     0.18  -0.13  -0.08     0.20  -0.14  -0.08
                     19                     20                     21
                        a                      a                      a 
 Frequencies --   933.3927               948.9666               967.7511
 Red. masses --     6.2694                 5.7224                 2.4397
 Frc consts  --     0.0000                 0.0000                 0.0000
 IR Inten    --     6.5810                 0.0002                 0.0072
 Raman Activ --     0.0000                 0.0000                 0.0000
 Depolar     --     0.0000                 0.0000                 0.0000
 Atom AN      X      Y      Z        X      Y      Z        X      Y      Z
   1   6     0.24   0.08  -0.01    -0.27  -0.08   0.00    -0.01   0.00  -0.13
   2   6     0.07   0.21   0.00    -0.03  -0.19  -0.00     0.00  -0.00   0.08
   3   6    -0.11  -0.30   0.00     0.19   0.22   0.00     0.00   0.00   0.08
   4   6    -0.11   0.10  -0.00     0.09  -0.04  -0.00    -0.00  -0.00  -0.19
   5   6    -0.11   0.10   0.00    -0.09   0.04   0.00    -0.00  -0.00   0.19
   6   6    -0.11  -0.30   0.00    -0.19  -0.22   0.00     0.00   0.01  -0.08
   7   6     0.07   0.21  -0.01     0.03   0.19  -0.01     0.00  -0.01  -0.08
   8   6     0.24   0.08   0.01     0.27   0.08   0.00    -0.01  -0.00   0.13
   9   1    -0.17  -0.02  -0.01     0.16   0.02   0.01    -0.17   0.12   0.07
  10   1     0.29  -0.29  -0.01    -0.31   0.29   0.01    -0.01   0.00   0.09
  11   1    -0.15  -0.03   0.02     0.16   0.03  -0.02     0.18  -0.12   0.06
  12   1    -0.07   0.05   0.00     0.09  -0.05  -0.00     0.24   0.07  -0.03
  13   1    -0.09   0.05   0.00     0.09  -0.05  -0.00    -0.23  -0.07  -0.02
  14   1    -0.05  -0.08  -0.00     0.10   0.06   0.00     0.24   0.08  -0.03
  15   1    -0.06  -0.08  -0.00     0.11   0.06  -0.00    -0.24  -0.07  -0.03
  16   1     0.01   0.02   0.00     0.03  -0.01  -0.00     0.10  -0.15   0.07
  17   1     0.01   0.03   0.00     0.03  -0.01   0.00    -0.10   0.15   0.07
  18   1     0.01   0.03  -0.00    -0.03   0.01   0.00    -0.10   0.15  -0.07
  19   1     0.01   0.02  -0.00    -0.03   0.00  -0.00     0.10  -0.15  -0.07
  20   1    -0.06  -0.08   0.00    -0.11  -0.06  -0.00    -0.23  -0.07   0.03
  21   1    -0.05  -0.08   0.00    -0.10  -0.06   0.00     0.24   0.08   0.03
  22   1    -0.09   0.05  -0.00    -0.10   0.05  -0.00    -0.23  -0.07   0.02
  23   1    -0.08   0.05  -0.00    -0.09   0.05  -0.00     0.24   0.07   0.03
  24   1    -0.17  -0.02   0.01    -0.16  -0.02   0.01    -0.17   0.12  -0.08
  25   1     0.30  -0.29   0.01     0.31  -0.29   0.01    -0.01   0.01  -0.09
  26   1    -0.15  -0.03  -0.02    -0.15  -0.03  -0.02     0.19  -0.12  -0.06
                     22                     23                     24
                        a                      a                      a 
 Frequencies --  1019.5724              1044.2625              1074.4215
 Red. masses --     1.6822                10.0827                10.1306
 Frc consts  --     0.0000                 0.0000                 0.0000
 IR Inten    --     0.4188                 0.0002                 0.6160
 Raman Activ --     0.0000                 0.0000                 0.0000
 Depolar     --     0.0000                 0.0000                 0.0000
 Atom AN      X      Y      Z        X      Y      Z        X      Y      Z
   1   6    -0.01   0.01  -0.10    -0.14   0.19   0.01    -0.24   0.16   0.01
   2   6     0.01  -0.01   0.12     0.15  -0.22  -0.01     0.27  -0.15  -0.01
   3   6     0.01  -0.00  -0.08     0.26  -0.10  -0.00     0.26  -0.22  -0.01
   4   6     0.01   0.02   0.03     0.14   0.44   0.00    -0.29   0.20   0.00
   5   6    -0.01  -0.02   0.03    -0.14  -0.44   0.00    -0.28   0.20  -0.00
   6   6    -0.01   0.00  -0.08    -0.26   0.10  -0.00     0.26  -0.22   0.01
   7   6    -0.01   0.01   0.12    -0.15   0.22  -0.01     0.27  -0.15   0.01
   8   6     0.01  -0.01  -0.10     0.14  -0.19   0.01    -0.24   0.16  -0.01
   9   1    -0.11   0.08   0.04    -0.14   0.03  -0.00    -0.08   0.05   0.01
  10   1    -0.00  -0.00   0.06     0.04  -0.06  -0.00    -0.07   0.05   0.00
  11   1     0.11  -0.08   0.04    -0.15   0.04   0.01    -0.08   0.05  -0.00
  12   1     0.17   0.09  -0.04    -0.04  -0.07   0.00     0.09  -0.04   0.00
  13   1    -0.17  -0.10  -0.04    -0.03  -0.06  -0.00     0.09  -0.05  -0.01
  14   1     0.27  -0.05   0.02    -0.03  -0.03  -0.00     0.09  -0.06   0.00
  15   1    -0.27   0.05   0.03    -0.01  -0.03  -0.00     0.09  -0.06  -0.01
  16   1     0.31   0.04  -0.01    -0.01   0.11   0.00    -0.08   0.06  -0.00
  17   1    -0.31  -0.03  -0.01     0.02   0.11   0.00    -0.07   0.06   0.01
  18   1     0.31   0.03  -0.01    -0.02  -0.11   0.00    -0.07   0.06  -0.01
  19   1    -0.31  -0.04  -0.01     0.01  -0.11   0.00    -0.08   0.06   0.00
  20   1     0.27  -0.05   0.03     0.01   0.03  -0.00     0.09  -0.06   0.01
  21   1    -0.27   0.05   0.02     0.03   0.03  -0.00     0.09  -0.06  -0.00
  22   1     0.17   0.10  -0.04     0.03   0.06  -0.00     0.09  -0.05   0.01
  23   1    -0.17  -0.09  -0.04     0.04   0.07   0.00     0.09  -0.04  -0.00
  24   1     0.11  -0.08   0.05     0.14  -0.03  -0.00    -0.08   0.05  -0.01
  25   1     0.00   0.00   0.06    -0.04   0.06  -0.00    -0.07   0.05  -0.00
  26   1    -0.11   0.08   0.04     0.15  -0.04   0.01    -0.08   0.05   0.00
                     25                     26                     27
                        a                      a                      a 
 Frequencies --  1097.2616              1105.1470              1108.7577
 Red. masses --     7.7712                 7.6153                 8.8437
 Frc consts  --     0.0000                 0.0000                 0.0000
 IR Inten    --     4.5364                 0.0009                 0.0000
 Raman Activ --     0.0000                 0.0000                 0.0000
 Depolar     --     0.0000                 0.0000                 0.0000
 Atom AN      X      Y      Z        X      Y      Z        X      Y      Z
   1   6    -0.09   0.27   0.01     0.15  -0.15  -0.01    -0.17   0.14   0.01
   2   6     0.19  -0.28  -0.01    -0.29   0.02   0.01     0.25  -0.10  -0.00
   3   6    -0.09   0.21   0.00     0.31  -0.06  -0.00     0.05  -0.15  -0.01
   4   6     0.19  -0.15  -0.00    -0.22   0.12   0.00    -0.42  -0.18   0.00
   5   6     0.19  -0.15   0.00     0.22  -0.12   0.00     0.42   0.18   0.00
   6   6    -0.09   0.20  -0.00    -0.31   0.06  -0.00    -0.05   0.15  -0.01
   7   6     0.19  -0.28   0.01     0.29  -0.02   0.01    -0.25   0.10  -0.00
   8   6    -0.09   0.27  -0.01    -0.15   0.15  -0.01     0.17  -0.14   0.01
   9   1    -0.20   0.04  -0.01     0.07  -0.04  -0.00    -0.07   0.04   0.00
  10   1     0.12  -0.12  -0.00     0.02  -0.02  -0.00    -0.03   0.02   0.00
  11   1    -0.20   0.04   0.02     0.07  -0.04  -0.00    -0.07   0.04   0.00
  12   1     0.01  -0.07  -0.00    -0.18  -0.00   0.01     0.11  -0.03  -0.00
  13   1     0.01  -0.07  -0.00    -0.18  -0.00   0.00     0.11  -0.03  -0.00
  14   1    -0.17   0.04   0.00     0.18  -0.01  -0.00     0.05  -0.05   0.01
  15   1    -0.18   0.04   0.00     0.18  -0.01   0.00     0.05  -0.05  -0.01
  16   1    -0.04  -0.04   0.00    -0.16   0.03   0.00    -0.21  -0.06   0.00
  17   1    -0.05  -0.05  -0.00    -0.16   0.03   0.00    -0.21  -0.06  -0.00
  18   1    -0.05  -0.05   0.00     0.16  -0.03   0.00     0.21   0.06  -0.00
  19   1    -0.04  -0.04  -0.00     0.16  -0.03   0.00     0.21   0.06   0.01
  20   1    -0.18   0.04  -0.00    -0.18   0.01   0.00    -0.05   0.05  -0.01
  21   1    -0.17   0.04  -0.00    -0.18   0.01  -0.00    -0.05   0.05   0.01
  22   1     0.01  -0.07   0.00     0.18   0.00   0.00    -0.11   0.03  -0.00
  23   1     0.01  -0.07   0.01     0.18   0.00   0.01    -0.11   0.03  -0.00
  24   1    -0.20   0.04   0.01    -0.07   0.04  -0.00     0.07  -0.04   0.00
  25   1     0.12  -0.12   0.00    -0.02   0.02  -0.00     0.03  -0.02   0.00
  26   1    -0.20   0.04  -0.02    -0.07   0.04  -0.00     0.07  -0.04   0.00
                     28                     29                     30
                        a                      a                      a 
 Frequencies --  1122.7573              1145.8065              1199.0583
 Red. masses --     7.2942                 8.6510                 6.7086
 Frc consts  --     0.0000                 0.0000                 0.0000
 IR Inten    --     4.0385                 0.0008                 0.0009
 Raman Activ --     0.0000                 0.0000                 0.0000
 Depolar     --     0.0000                 0.0000                 0.0000
 Atom AN      X      Y      Z        X      Y      Z        X      Y      Z
   1   6    -0.14  -0.00   0.00     0.07   0.16   0.00    -0.00  -0.00  -0.17
   2   6     0.27   0.20  -0.00    -0.09  -0.32  -0.00     0.01   0.00   0.26
   3   6    -0.34  -0.16   0.00     0.07   0.35   0.00    -0.00  -0.00  -0.28
   4   6     0.07  -0.08  -0.00     0.03  -0.28  -0.00     0.00   0.00   0.29
   5   6     0.07  -0.08   0.00    -0.03   0.28  -0.00     0.00  -0.00  -0.29
   6   6    -0.34  -0.16  -0.00    -0.07  -0.35   0.00    -0.00  -0.00   0.28
   7   6     0.27   0.20   0.00     0.09   0.32  -0.00     0.01   0.00  -0.26
   8   6    -0.14  -0.00  -0.00    -0.07  -0.16   0.00    -0.00   0.00   0.17
   9   1     0.06   0.03   0.01    -0.15   0.00  -0.01    -0.12   0.10   0.05
  10   1    -0.12   0.11   0.00     0.15  -0.14  -0.01    -0.00   0.00   0.07
  11   1     0.05   0.03  -0.01    -0.15  -0.00   0.02     0.13  -0.10   0.04
  12   1     0.24   0.06  -0.00    -0.12  -0.08  -0.00    -0.00   0.16  -0.05
  13   1     0.24   0.06  -0.00    -0.12  -0.08   0.00    -0.00  -0.15  -0.05
  14   1    -0.10  -0.04   0.00     0.01   0.08   0.00     0.03  -0.16   0.05
  15   1    -0.10  -0.05  -0.00     0.01   0.09  -0.00    -0.04   0.16   0.06
  16   1     0.13  -0.02   0.00    -0.01  -0.06  -0.01    -0.01   0.17  -0.06
  17   1     0.13  -0.03  -0.01    -0.01  -0.06   0.00     0.00  -0.17  -0.06
  18   1     0.13  -0.03   0.01     0.01   0.06   0.00     0.00  -0.17   0.06
  19   1     0.13  -0.02  -0.00     0.01   0.06  -0.01    -0.01   0.17   0.06
  20   1    -0.10  -0.05   0.00    -0.01  -0.09  -0.00    -0.04   0.16  -0.06
  21   1    -0.10  -0.04  -0.00    -0.01  -0.08   0.00     0.03  -0.16  -0.05
  22   1     0.24   0.06   0.00     0.12   0.08   0.00    -0.00  -0.15   0.05
  23   1     0.24   0.06   0.00     0.12   0.08  -0.00    -0.00   0.16   0.05
  24   1     0.06   0.03  -0.01     0.15  -0.00  -0.01    -0.12   0.10  -0.05
  25   1    -0.12   0.11  -0.00    -0.15   0.14  -0.01    -0.00   0.00  -0.07
  26   1     0.05   0.03   0.01     0.15   0.00   0.02     0.13  -0.10  -0.04
                     31                     32                     33
                        a                      a                      a 
 Frequencies --  1217.0259              1239.6422              1248.9078
 Red. masses --     5.3091                 3.5415                 3.8723
 Frc consts  --     0.0000                 0.0000                 0.0000
 IR Inten    --     0.6447                 0.4588                 0.0037
 Raman Activ --     0.0000                 0.0000                 0.0000
 Depolar     --     0.0000                 0.0000                 0.0000
 Atom AN      X      Y      Z        X      Y      Z        X      Y      Z
   1   6     0.00  -0.00   0.23     0.04   0.11  -0.01     0.01   0.00   0.20
   2   6    -0.01   0.01  -0.31    -0.09  -0.16   0.01    -0.01  -0.01  -0.16
   3   6     0.00  -0.00   0.21    -0.14   0.12   0.00    -0.01   0.01  -0.08
   4   6    -0.00   0.00  -0.08    -0.18  -0.05  -0.01    -0.01  -0.00   0.24
   5   6     0.00  -0.00  -0.08    -0.18  -0.05   0.01    -0.01  -0.00  -0.24
   6   6    -0.00   0.00   0.21    -0.14   0.12  -0.00    -0.01   0.01   0.08
   7   6     0.01  -0.01  -0.31    -0.09  -0.16  -0.02    -0.01  -0.00   0.16
   8   6    -0.00   0.00   0.23     0.04   0.11   0.01     0.01   0.00  -0.20
   9   1     0.16  -0.13  -0.06    -0.08   0.01  -0.01     0.12  -0.11  -0.05
  10   1    -0.00   0.00  -0.10     0.08  -0.08   0.00     0.00  -0.00  -0.08
  11   1    -0.17   0.13  -0.05    -0.06  -0.01   0.02    -0.13   0.11  -0.03
  12   1     0.10  -0.17   0.05     0.08  -0.02  -0.01     0.27  -0.08   0.02
  13   1    -0.09   0.17   0.06     0.11  -0.04  -0.00    -0.26   0.07   0.03
  14   1     0.11   0.12  -0.04     0.24   0.03   0.00     0.20  -0.03   0.01
  15   1    -0.10  -0.12  -0.04     0.27   0.03  -0.00    -0.17   0.04   0.01
  16   1     0.17  -0.04   0.01     0.32  -0.00  -0.00     0.15   0.14  -0.04
  17   1    -0.17   0.04   0.02     0.33   0.01   0.00    -0.11  -0.13  -0.04
  18   1     0.17  -0.04   0.02     0.33   0.01  -0.00    -0.11  -0.14   0.04
  19   1    -0.17   0.04   0.01     0.32  -0.00   0.00     0.15   0.14   0.04
  20   1     0.10   0.12  -0.04     0.27   0.03   0.00    -0.17   0.04  -0.01
  21   1    -0.11  -0.12  -0.04     0.24   0.03  -0.00     0.20  -0.03  -0.01
  22   1     0.09  -0.17   0.06     0.11  -0.04   0.00    -0.26   0.07  -0.03
  23   1    -0.10   0.17   0.05     0.08  -0.02   0.01     0.27  -0.08  -0.02
  24   1    -0.16   0.13  -0.06    -0.08   0.01   0.01     0.12  -0.11   0.05
  25   1    -0.00  -0.00  -0.10     0.08  -0.08  -0.00     0.00  -0.00   0.08
  26   1     0.17  -0.13  -0.05    -0.06  -0.01  -0.02    -0.13   0.11   0.03
                     34                     35                     36
                        a                      a                      a 
 Frequencies --  1274.3046              1277.5276              1285.0850
 Red. masses --     1.3180                 2.7585                 3.5644
 Frc consts  --     0.0000                 0.0000                 0.0000
 IR Inten    --     0.0009                 0.0182                 0.0009
 Raman Activ --     0.0000                 0.0000                 0.0000
 Depolar     --     0.0000                 0.0000                 0.0000
 Atom AN      X      Y      Z        X      Y      Z        X      Y      Z
   1   6    -0.00   0.00  -0.01     0.00  -0.01   0.15     0.04   0.11   0.01
   2   6    -0.00   0.00  -0.11     0.01   0.01   0.01    -0.17  -0.10   0.02
   3   6    -0.00   0.00  -0.02     0.01   0.01  -0.22    -0.20  -0.02  -0.01
   4   6    -0.00  -0.00   0.04     0.01  -0.01   0.09    -0.09   0.12  -0.01
   5   6    -0.00  -0.00  -0.04    -0.01   0.01   0.09     0.09  -0.12  -0.01
   6   6    -0.00   0.00   0.02    -0.01  -0.01  -0.22     0.20   0.02  -0.00
   7   6    -0.00  -0.00   0.11    -0.01  -0.01   0.01     0.17   0.10   0.02
   8   6     0.00   0.00   0.01    -0.00   0.01   0.15    -0.04  -0.11   0.01
   9   1    -0.01   0.00  -0.00     0.09  -0.08  -0.03    -0.04  -0.02  -0.02
  10   1     0.00  -0.00  -0.02    -0.00   0.00  -0.04     0.10  -0.09  -0.00
  11   1     0.01  -0.00  -0.00    -0.09   0.08  -0.02    -0.05  -0.01   0.02
  12   1    -0.17  -0.06   0.01     0.37   0.02  -0.01     0.26  -0.00  -0.01
  13   1     0.17   0.06   0.01    -0.39  -0.02   0.00     0.19  -0.02  -0.00
  14   1     0.35   0.00  -0.00    -0.05  -0.12   0.03     0.28   0.01  -0.00
  15   1    -0.35  -0.00   0.00     0.01   0.12   0.03     0.37   0.02   0.00
  16   1    -0.29   0.01  -0.00    -0.18   0.04  -0.01     0.16   0.01   0.01
  17   1     0.30  -0.01  -0.01     0.16  -0.04  -0.02     0.13   0.03  -0.01
  18   1     0.30  -0.01   0.01    -0.16   0.04  -0.02    -0.13  -0.03  -0.01
  19   1    -0.29   0.01   0.00     0.18  -0.04  -0.01    -0.17  -0.02   0.01
  20   1    -0.35  -0.00  -0.00    -0.01  -0.12   0.03    -0.37  -0.02   0.00
  21   1     0.36   0.01   0.00     0.05   0.12   0.03    -0.28  -0.01  -0.00
  22   1     0.17   0.06  -0.01     0.39   0.02   0.00    -0.19   0.02  -0.00
  23   1    -0.17  -0.06  -0.01    -0.37  -0.02  -0.01    -0.26  -0.00  -0.01
  24   1    -0.01   0.00   0.00    -0.09   0.07  -0.03     0.04   0.02  -0.02
  25   1     0.00  -0.00   0.02     0.00  -0.01  -0.04    -0.10   0.09  -0.00
  26   1     0.01  -0.00   0.00     0.09  -0.08  -0.02     0.04   0.01   0.02
                     37                     38                     39
                        a                      a                      a 
 Frequencies --  1292.7691              1295.7001              1326.9171
 Red. masses --     1.9750                 2.2872                 3.9114
 Frc consts  --     0.0000                 0.0000                 0.0000
 IR Inten    --     0.0942                 0.0000                 1.3347
 Raman Activ --     0.0000                 0.0000                 0.0000
 Depolar     --     0.0000                 0.0000                 0.0000
 Atom AN      X      Y      Z        X      Y      Z        X      Y      Z
   1   6    -0.00  -0.01  -0.01    -0.00   0.00  -0.08     0.03   0.10   0.00
   2   6     0.02   0.01   0.11     0.00   0.00  -0.06    -0.26  -0.04   0.00
   3   6     0.02   0.00   0.06     0.01  -0.00   0.17    -0.10  -0.09   0.00
   4   6     0.01  -0.01  -0.17    -0.01   0.00   0.14     0.18   0.07  -0.00
   5   6    -0.00   0.01  -0.17    -0.00   0.00  -0.14     0.18   0.07   0.00
   6   6    -0.02  -0.00   0.05     0.01  -0.00  -0.17    -0.10  -0.09  -0.00
   7   6    -0.02  -0.01   0.11     0.00   0.00   0.05    -0.26  -0.04  -0.00
   8   6     0.00   0.01  -0.00    -0.00   0.00   0.08     0.03   0.09  -0.00
   9   1     0.00   0.01   0.01    -0.05   0.04   0.01    -0.01  -0.03  -0.03
  10   1    -0.01   0.01   0.02    -0.00   0.00   0.02     0.10  -0.09  -0.00
  11   1     0.00  -0.00   0.00     0.05  -0.04   0.01    -0.00  -0.03   0.03
  12   1     0.09   0.06  -0.01    -0.28  -0.04   0.01     0.30   0.00  -0.01
  13   1    -0.15  -0.06  -0.01     0.27   0.04   0.01     0.31   0.00  -0.01
  14   1    -0.41   0.01  -0.00     0.12   0.09  -0.02     0.15   0.01  -0.02
  15   1     0.34  -0.02  -0.01    -0.12  -0.09  -0.02     0.15   0.01   0.01
  16   1     0.23  -0.08   0.01     0.33   0.08  -0.02    -0.24  -0.01   0.01
  17   1    -0.26   0.07   0.02    -0.33  -0.08  -0.01    -0.25  -0.01  -0.01
  18   1     0.25  -0.07   0.02    -0.33  -0.08   0.01    -0.25  -0.01   0.01
  19   1    -0.23   0.08   0.01     0.33   0.08   0.02    -0.24  -0.01  -0.01
  20   1    -0.34   0.01  -0.01    -0.12  -0.09   0.02     0.15   0.01  -0.01
  21   1     0.41  -0.01  -0.00     0.11   0.09   0.02     0.15   0.01   0.02
  22   1     0.15   0.06  -0.01     0.27   0.04  -0.01     0.31   0.00   0.01
  23   1    -0.10  -0.06  -0.01    -0.28  -0.04  -0.01     0.30   0.00   0.01
  24   1    -0.01  -0.01   0.01    -0.05   0.04  -0.01    -0.01  -0.03   0.03
  25   1     0.01  -0.01   0.02    -0.00   0.00  -0.02     0.10  -0.09   0.00
  26   1    -0.00   0.00   0.00     0.05  -0.04  -0.01    -0.00  -0.03  -0.03
                     40                     41                     42
                        a                      a                      a 
 Frequencies --  1359.8259              1377.2434              1379.0830
 Red. masses --     4.5124                 5.2430                 5.8500
 Frc consts  --     0.0000                 0.0000                 0.0000
 IR Inten    --     0.0004                 0.8530                 0.0016
 Raman Activ --     0.0000                 0.0000                 0.0000
 Depolar     --     0.0000                 0.0000                 0.0000
 Atom AN      X      Y      Z        X      Y      Z        X      Y      Z
   1   6     0.03   0.07   0.00    -0.03  -0.04   0.00     0.03   0.00  -0.00
   2   6    -0.30   0.01   0.01     0.26  -0.02  -0.01    -0.15   0.01   0.00
   3   6     0.14  -0.05  -0.00    -0.32  -0.01   0.00     0.27   0.02  -0.00
   4   6     0.21  -0.04  -0.00     0.14   0.04  -0.00    -0.35  -0.01   0.00
   5   6    -0.21   0.04  -0.00     0.14   0.04   0.00     0.35   0.01   0.00
   6   6    -0.14   0.05  -0.00    -0.32  -0.01  -0.00    -0.27  -0.02  -0.00
   7   6     0.30  -0.01   0.01     0.26  -0.02   0.01     0.15  -0.01   0.00
   8   6    -0.03  -0.07   0.00    -0.03  -0.04   0.00    -0.03  -0.00  -0.00
   9   1     0.02  -0.03  -0.04    -0.00   0.03   0.02    -0.02  -0.01  -0.01
  10   1     0.08  -0.08  -0.00    -0.04   0.04   0.00     0.01   0.00   0.00
  11   1     0.02  -0.04   0.03    -0.00   0.03  -0.02    -0.02  -0.01   0.01
  12   1     0.29   0.00   0.00    -0.22   0.00  -0.01     0.11  -0.00   0.01
  13   1     0.30  -0.00  -0.01    -0.22   0.00   0.02     0.11  -0.00  -0.01
  14   1    -0.15   0.01  -0.02     0.29   0.01   0.00    -0.22  -0.01   0.01
  15   1    -0.14   0.00   0.02     0.29   0.01  -0.01    -0.21  -0.01  -0.00
  16   1    -0.23  -0.00  -0.01    -0.13  -0.02   0.02     0.28   0.01  -0.00
  17   1    -0.24  -0.00   0.01    -0.13  -0.01  -0.01     0.29   0.01  -0.00
  18   1     0.24   0.00   0.01    -0.14  -0.01   0.01    -0.29  -0.01  -0.01
  19   1     0.23   0.00  -0.01    -0.13  -0.02  -0.02    -0.28  -0.01  -0.00
  20   1     0.14  -0.00   0.02     0.29   0.01   0.01     0.21   0.01  -0.00
  21   1     0.15  -0.01  -0.02     0.29   0.01  -0.00     0.21   0.01   0.01
  22   1    -0.30  -0.00  -0.01    -0.22   0.00  -0.02    -0.11   0.00  -0.01
  23   1    -0.29  -0.00   0.00    -0.22   0.00   0.01    -0.11   0.00   0.01
  24   1    -0.02   0.03  -0.04    -0.00   0.03  -0.03     0.02   0.01  -0.01
  25   1    -0.08   0.08  -0.00    -0.04   0.04  -0.00    -0.01  -0.00   0.00
  26   1    -0.02   0.04   0.03    -0.00   0.03   0.02     0.02   0.01   0.01
                     43                     44                     45
                        a                      a                      a 
 Frequencies --  1415.9512              1416.0412              1495.6628
 Red. masses --     3.1766                 3.1861                 1.9265
 Frc consts  --     0.0000                 0.0000                 0.0000
 IR Inten    --     1.6592                 0.0014                 0.1466
 Raman Activ --     0.0000                 0.0000                 0.0000
 Depolar     --     0.0000                 0.0000                 0.0000
 Atom AN      X      Y      Z        X      Y      Z        X      Y      Z
   1   6    -0.27   0.15   0.01    -0.27   0.15   0.01    -0.00  -0.03  -0.00
   2   6     0.06   0.01  -0.00     0.06   0.01  -0.00    -0.02   0.09   0.00
   3   6    -0.00   0.01   0.00     0.00   0.02   0.00    -0.03   0.13   0.00
   4   6    -0.01  -0.01  -0.00    -0.03  -0.01   0.00     0.03  -0.12  -0.00
   5   6    -0.01  -0.01   0.00     0.03   0.01   0.00     0.03  -0.12   0.00
   6   6    -0.00   0.01  -0.00    -0.00  -0.02   0.00    -0.03   0.13  -0.00
   7   6     0.06   0.01   0.00    -0.06  -0.01  -0.00    -0.02   0.09  -0.00
   8   6    -0.27   0.15  -0.01     0.27  -0.15   0.01    -0.00  -0.03   0.00
   9   1     0.33  -0.10  -0.11     0.33  -0.10  -0.11     0.01   0.08   0.06
  10   1     0.21  -0.29  -0.01     0.21  -0.29  -0.01     0.03  -0.03   0.00
  11   1     0.33  -0.11   0.10     0.33  -0.11   0.10     0.01   0.08  -0.06
  12   1    -0.06  -0.03   0.02    -0.06  -0.03   0.02     0.02  -0.16   0.12
  13   1    -0.06  -0.03  -0.02    -0.06  -0.03  -0.02     0.02  -0.16  -0.13
  14   1    -0.01   0.01  -0.00    -0.01   0.01   0.00     0.03  -0.25   0.18
  15   1    -0.01   0.01   0.00    -0.01   0.01   0.00     0.02  -0.24  -0.19
  16   1     0.02   0.00  -0.00     0.03   0.00  -0.00    -0.03   0.23  -0.17
  17   1     0.02   0.00   0.00     0.03   0.00  -0.00    -0.02   0.22   0.17
  18   1     0.02   0.00  -0.00    -0.03  -0.00  -0.00    -0.02   0.23  -0.18
  19   1     0.02   0.00   0.00    -0.03  -0.00  -0.00    -0.03   0.24   0.17
  20   1    -0.01   0.01  -0.00     0.01  -0.01   0.00     0.02  -0.24   0.18
  21   1    -0.00   0.01   0.00     0.01  -0.01   0.00     0.03  -0.24  -0.18
  22   1    -0.06  -0.03   0.02     0.06   0.03  -0.02     0.02  -0.16   0.13
  23   1    -0.06  -0.03  -0.02     0.06   0.03   0.02     0.02  -0.17  -0.12
  24   1     0.33  -0.10   0.11    -0.33   0.10  -0.11     0.01   0.08  -0.06
  25   1     0.21  -0.29   0.01    -0.21   0.29  -0.01     0.03  -0.03  -0.01
  26   1     0.33  -0.11  -0.10    -0.33   0.11   0.10     0.00   0.08   0.06
                     46                     47                     48
                        a                      a                      a 
 Frequencies --  1495.7911              1498.5412              1499.2938
 Red. masses --     1.8674                 1.9792                 1.8201
 Frc consts  --     0.0000                 0.0000                 0.0000
 IR Inten    --     0.0002                 0.0049                 0.1944
 Raman Activ --     0.0000                 0.0000                 0.0000
 Depolar     --     0.0000                 0.0000                 0.0000
 Atom AN      X      Y      Z        X      Y      Z        X      Y      Z
   1   6    -0.00   0.02   0.00    -0.01  -0.04  -0.00    -0.01   0.02  -0.00
   2   6    -0.01  -0.12  -0.00    -0.03   0.10   0.00    -0.01  -0.15  -0.00
   3   6     0.02   0.06   0.00    -0.01   0.17   0.00     0.01   0.12   0.00
   4   6     0.02   0.14   0.00     0.02   0.04   0.00     0.00   0.02   0.00
   5   6    -0.02  -0.14   0.00    -0.02  -0.04   0.00     0.00   0.02  -0.00
   6   6    -0.02  -0.07   0.00     0.01  -0.17   0.00     0.01   0.12  -0.00
   7   6     0.01   0.12  -0.00     0.03  -0.10   0.00    -0.01  -0.15   0.00
   8   6     0.00  -0.02  -0.00     0.01   0.04  -0.01    -0.01   0.02   0.00
   9   1     0.01  -0.05  -0.04     0.02   0.11   0.08     0.02  -0.04  -0.03
  10   1    -0.01   0.01   0.00     0.04  -0.05   0.01     0.00  -0.00   0.01
  11   1     0.01  -0.06   0.04     0.01   0.11  -0.08     0.01  -0.05   0.03
  12   1    -0.01   0.24  -0.17     0.03  -0.20   0.14    -0.00   0.30  -0.21
  13   1    -0.00   0.23   0.18     0.02  -0.19  -0.15     0.00   0.29   0.23
  14   1    -0.01  -0.12   0.09     0.02  -0.30   0.22    -0.00  -0.24   0.17
  15   1    -0.02  -0.12  -0.09     0.01  -0.30  -0.23    -0.00  -0.24  -0.18
  16   1    -0.00  -0.28   0.20    -0.01  -0.05   0.04    -0.01  -0.02   0.02
  17   1    -0.01  -0.27  -0.21    -0.01  -0.05  -0.04    -0.01  -0.02  -0.02
  18   1     0.01   0.27  -0.20     0.01   0.05  -0.04    -0.01  -0.02   0.02
  19   1     0.00   0.27   0.20     0.01   0.05   0.04    -0.01  -0.02  -0.02
  20   1     0.02   0.12  -0.10    -0.01   0.30  -0.23    -0.00  -0.24   0.18
  21   1     0.01   0.13   0.09    -0.02   0.30   0.22    -0.00  -0.24  -0.17
  22   1     0.00  -0.23   0.18    -0.02   0.19  -0.15     0.00   0.29  -0.23
  23   1     0.01  -0.24  -0.17    -0.03   0.20   0.14    -0.00   0.30   0.21
  24   1    -0.01   0.05  -0.04    -0.02  -0.11   0.08     0.02  -0.04   0.03
  25   1     0.01  -0.01   0.00    -0.04   0.05   0.01     0.00  -0.00  -0.01
  26   1    -0.00   0.06   0.04    -0.01  -0.11  -0.07     0.01  -0.05  -0.03
                     49                     50                     51
                        a                      a                      a 
 Frequencies --  1501.7661              1504.4280              1504.7887
 Red. masses --     2.0273                 1.7572                 1.5362
 Frc consts  --     0.0000                 0.0000                 0.0000
 IR Inten    --     0.5217                 0.4248                 1.3735
 Raman Activ --     0.0000                 0.0000                 0.0000
 Depolar     --     0.0000                 0.0000                 0.0000
 Atom AN      X      Y      Z        X      Y      Z        X      Y      Z
   1   6     0.01   0.03   0.00    -0.02  -0.01  -0.04    -0.00   0.01  -0.21
   2   6     0.02  -0.08  -0.00    -0.01  -0.11  -0.01     0.00   0.01  -0.04
   3   6    -0.01  -0.10  -0.00     0.00   0.07   0.00    -0.00  -0.02   0.00
   4   6     0.01  -0.17  -0.00    -0.00  -0.12  -0.00    -0.00   0.01   0.00
   5   6     0.01  -0.17   0.00     0.00   0.12  -0.00     0.00  -0.02  -0.00
   6   6    -0.01  -0.10   0.00    -0.00  -0.07   0.00    -0.00   0.01  -0.00
   7   6     0.02  -0.08   0.00     0.01   0.11  -0.01    -0.00  -0.01   0.01
   8   6     0.01   0.03  -0.01     0.02   0.01  -0.06    -0.00  -0.00   0.05
   9   1    -0.02  -0.08  -0.06     0.10   0.06   0.04     0.42   0.15   0.07
  10   1    -0.03   0.03  -0.01     0.02  -0.04   0.12     0.01  -0.01   0.69
  11   1    -0.00  -0.08   0.05    -0.05   0.01  -0.01    -0.42  -0.16   0.08
  12   1    -0.01   0.15  -0.11     0.00   0.21  -0.15     0.02  -0.04   0.02
  13   1    -0.01   0.14   0.11     0.00   0.21   0.16    -0.02  -0.00  -0.02
  14   1    -0.00   0.16  -0.12     0.01  -0.17   0.12     0.02   0.03  -0.02
  15   1     0.00   0.16   0.12     0.00  -0.16  -0.12    -0.02   0.03   0.02
  16   1    -0.02   0.30  -0.22    -0.01   0.25  -0.18    -0.00  -0.02   0.02
  17   1    -0.01   0.30   0.23    -0.01   0.25   0.19     0.00  -0.03  -0.02
  18   1    -0.01   0.30  -0.23     0.00  -0.25   0.19    -0.00   0.03  -0.03
  19   1    -0.02   0.30   0.22     0.01  -0.25  -0.18    -0.00   0.03   0.03
  20   1     0.00   0.16  -0.12     0.00   0.16  -0.12    -0.00  -0.01   0.01
  21   1    -0.00   0.16   0.12    -0.01   0.16   0.12     0.01  -0.01  -0.01
  22   1    -0.01   0.14  -0.11    -0.00  -0.21   0.16    -0.00   0.03  -0.02
  23   1    -0.01   0.15   0.11    -0.01  -0.21  -0.15     0.00   0.02   0.02
  24   1    -0.02  -0.08   0.06    -0.13  -0.07   0.05     0.10   0.04  -0.02
  25   1    -0.03   0.03   0.01    -0.03   0.04   0.18     0.00  -0.01  -0.16
  26   1    -0.00  -0.08  -0.05     0.09   0.01  -0.00    -0.09  -0.03  -0.01
                     52                     53                     54
                        a                      a                      a 
 Frequencies --  1504.8007              1507.9010              1508.0979
 Red. masses --     1.5533                 1.6660                 1.6329
 Frc consts  --     0.0000                 0.0000                 0.0000
 IR Inten    --     3.0651                 2.3345                 0.0000
 Raman Activ --     0.0000                 0.0000                 0.0000
 Depolar     --     0.0000                 0.0000                 0.0000
 Atom AN      X      Y      Z        X      Y      Z        X      Y      Z
   1   6     0.00   0.01  -0.04    -0.07  -0.13  -0.00     0.07   0.13   0.00
   2   6     0.00   0.03  -0.01    -0.03  -0.08  -0.00     0.03   0.06   0.00
   3   6    -0.00  -0.02   0.00     0.02  -0.03  -0.00    -0.02   0.04   0.00
   4   6    -0.00   0.04   0.00    -0.01  -0.01  -0.00     0.01  -0.02  -0.00
   5   6     0.00  -0.03   0.00    -0.01  -0.01   0.00    -0.01   0.02  -0.00
   6   6     0.00   0.03   0.00     0.02  -0.03   0.00     0.02  -0.04   0.00
   7   6    -0.00  -0.03  -0.04    -0.03  -0.08   0.00    -0.03  -0.06   0.00
   8   6    -0.00  -0.01  -0.20    -0.07  -0.13   0.00    -0.07  -0.13   0.00
   9   1     0.07   0.02   0.00     0.08   0.34   0.26    -0.08  -0.34  -0.26
  10   1    -0.01   0.01   0.13     0.13  -0.18  -0.01    -0.13   0.18   0.01
  11   1    -0.08  -0.04   0.02     0.08   0.35  -0.24    -0.08  -0.35   0.24
  12   1     0.00  -0.06   0.04     0.02   0.09  -0.07    -0.02  -0.06   0.05
  13   1    -0.01  -0.06  -0.05     0.02   0.09   0.08    -0.02  -0.06  -0.05
  14   1     0.00   0.05  -0.04    -0.01   0.07  -0.05     0.01  -0.10   0.07
  15   1    -0.00   0.05   0.04    -0.01   0.07   0.05     0.01  -0.10  -0.07
  16   1     0.00  -0.08   0.06     0.00   0.01  -0.01    -0.00   0.06  -0.04
  17   1     0.00  -0.08  -0.06     0.00   0.01   0.01    -0.00   0.05   0.04
  18   1    -0.01   0.07  -0.05     0.00   0.01  -0.01     0.00  -0.05   0.04
  19   1     0.00   0.07   0.05     0.00   0.01   0.01     0.00  -0.06  -0.04
  20   1     0.02  -0.06   0.05    -0.01   0.07  -0.05    -0.01   0.10  -0.07
  21   1    -0.02  -0.07  -0.05    -0.01   0.07   0.05    -0.01   0.10   0.07
  22   1     0.02   0.04  -0.05     0.02   0.09  -0.08     0.02   0.06  -0.05
  23   1    -0.02   0.08   0.04     0.02   0.09   0.07     0.02   0.06   0.05
  24   1    -0.40  -0.14   0.06     0.08   0.34  -0.26     0.08   0.33  -0.26
  25   1    -0.00   0.01   0.67     0.13  -0.18   0.01     0.13  -0.18   0.01
  26   1     0.41   0.17   0.08     0.08   0.35   0.24     0.08   0.35   0.24
                     55                     56                     57
                        a                      a                      a 
 Frequencies --  2953.4477              2955.7296              2959.5697
 Red. masses --     1.8858                 1.9209                 1.9611
 Frc consts  --     0.0000                 0.0000                 0.0000
 IR Inten    --     0.0159                 0.1794                 0.0049
 Raman Activ --     0.0000                 0.0000                 0.0000
 Depolar     --     0.0000                 0.0000                 0.0000
 Atom AN      X      Y      Z        X      Y      Z        X      Y      Z
   1   6     0.00   0.00  -0.00     0.00   0.00  -0.00    -0.00   0.00  -0.01
   2   6     0.00  -0.00   0.03     0.00  -0.00   0.09     0.00  -0.00   0.14
   3   6    -0.00   0.00  -0.10    -0.00   0.00  -0.16    -0.00   0.00  -0.12
   4   6     0.00  -0.00   0.17     0.00  -0.00   0.09    -0.00   0.00  -0.10
   5   6     0.00  -0.00  -0.17    -0.00   0.00   0.09    -0.00   0.00   0.10
   6   6    -0.00   0.00   0.10     0.00  -0.00  -0.16    -0.00   0.00   0.12
   7   6     0.00  -0.00  -0.03    -0.00   0.00   0.09     0.00  -0.00  -0.14
   8   6     0.00   0.00   0.00     0.00  -0.00  -0.00    -0.00   0.00   0.01
   9   1     0.00  -0.00   0.00     0.00  -0.01   0.01     0.00  -0.02   0.02
  10   1    -0.00  -0.00  -0.00    -0.00  -0.00  -0.00    -0.00  -0.00  -0.00
  11   1    -0.00   0.00   0.00    -0.00   0.01   0.01    -0.00   0.02   0.02
  12   1    -0.00  -0.05  -0.07     0.00  -0.12  -0.17     0.00  -0.19  -0.26
  13   1    -0.00   0.05  -0.06    -0.01   0.13  -0.16    -0.01   0.20  -0.25
  14   1    -0.01   0.15   0.20    -0.01   0.23   0.31    -0.00   0.16   0.22
  15   1     0.01  -0.16   0.19     0.01  -0.23   0.29     0.01  -0.16   0.21
  16   1     0.01  -0.24  -0.32     0.01  -0.12  -0.16    -0.00   0.14   0.18
  17   1    -0.01   0.25  -0.32    -0.01   0.13  -0.17     0.01  -0.14   0.19
  18   1    -0.01   0.25   0.32     0.01  -0.13  -0.17     0.01  -0.14  -0.19
  19   1     0.01  -0.24   0.32    -0.01   0.12  -0.16    -0.00   0.14  -0.18
  20   1     0.01  -0.16  -0.19    -0.01   0.23   0.29     0.01  -0.16  -0.21
  21   1    -0.01   0.15  -0.20     0.01  -0.23   0.31    -0.00   0.16  -0.22
  22   1    -0.00   0.05   0.06     0.01  -0.13  -0.16    -0.01   0.20   0.25
  23   1    -0.00  -0.05   0.07    -0.00   0.12  -0.17     0.00  -0.19   0.26
  24   1     0.00  -0.00  -0.00    -0.00   0.01   0.01     0.00  -0.02  -0.02
  25   1    -0.00  -0.00   0.00     0.00   0.00  -0.00    -0.00   0.00   0.00
  26   1    -0.00   0.00  -0.00     0.00  -0.01   0.01    -0.00   0.02  -0.02
                     58                     59                     60
                        a                      a                      a 
 Frequencies --  2965.2454              2972.4445              2973.3275
 Red. masses --     2.0007                 1.9976                 1.4657
 Frc consts  --     0.0000                 0.0000                 0.0000
 IR Inten    --     3.9491                 0.0430                 0.5913
 Raman Activ --     0.0000                 0.0000                 0.0000
 Depolar     --     0.0000                 0.0000                 0.0000
 Atom AN      X      Y      Z        X      Y      Z        X      Y      Z
   1   6     0.00  -0.00   0.02     0.00   0.00   0.02    -0.00  -0.00  -0.00
   2   6    -0.00   0.01  -0.16    -0.00   0.01  -0.15    -0.00   0.06   0.02
   3   6    -0.00  -0.00  -0.02    -0.00  -0.03  -0.14     0.00  -0.04   0.01
   4   6     0.00  -0.01   0.13    -0.00   0.02  -0.05     0.01  -0.12  -0.00
   5   6    -0.00   0.01   0.13    -0.00   0.02   0.05    -0.01   0.13  -0.01
   6   6     0.00   0.00  -0.02    -0.00  -0.03   0.14    -0.00   0.03   0.01
   7   6     0.00  -0.01  -0.16    -0.00   0.01   0.15     0.00  -0.06   0.01
   8   6    -0.00   0.00   0.02     0.00   0.00  -0.02     0.00   0.00  -0.00
   9   1    -0.00   0.03  -0.03    -0.00   0.03  -0.04    -0.00   0.00  -0.01
  10   1     0.00   0.00   0.00    -0.00  -0.00   0.00     0.01   0.01  -0.00
  11   1     0.00  -0.03  -0.04     0.00  -0.03  -0.05    -0.00   0.01   0.01
  12   1    -0.00   0.21   0.29    -0.00   0.17   0.24     0.00  -0.12  -0.20
  13   1     0.02  -0.24   0.30     0.01  -0.23   0.29     0.01  -0.10   0.14
  14   1    -0.00   0.03   0.04    -0.01   0.23   0.33     0.00   0.05   0.08
  15   1     0.00  -0.02   0.03     0.01  -0.12   0.15    -0.00   0.08  -0.11
  16   1     0.00  -0.16  -0.21    -0.00   0.04   0.04    -0.00   0.23   0.36
  17   1    -0.01   0.19  -0.25     0.01  -0.10   0.14    -0.01   0.23  -0.35
  18   1     0.01  -0.19  -0.25     0.01  -0.10  -0.14     0.01  -0.24  -0.36
  19   1    -0.00   0.16  -0.21    -0.00   0.04  -0.04     0.00  -0.24   0.38
  20   1    -0.00   0.02   0.03     0.01  -0.12  -0.15     0.00  -0.06  -0.09
  21   1     0.00  -0.03   0.04    -0.01   0.23  -0.32    -0.00  -0.04   0.06
  22   1    -0.01   0.24   0.30     0.01  -0.23  -0.28    -0.01   0.10   0.14
  23   1     0.00  -0.21   0.29    -0.00   0.17  -0.24    -0.00   0.12  -0.19
  24   1     0.00  -0.03  -0.03    -0.00   0.03   0.04     0.00  -0.00  -0.01
  25   1    -0.00   0.00   0.00    -0.00  -0.00  -0.00    -0.01  -0.01  -0.00
  26   1    -0.00   0.03  -0.04     0.00  -0.03   0.05     0.00  -0.01   0.01
                     61                     62                     63
                        a                      a                      a 
 Frequencies --  2973.3734              2976.9770              2978.1436
 Red. masses --     1.4930                 1.4449                 1.4843
 Frc consts  --     0.0000                 0.0000                 0.0000
 IR Inten    --     0.4848                 4.0865                 1.3868
 Raman Activ --     0.0000                 0.0000                 0.0000
 Depolar     --     0.0000                 0.0000                 0.0000
 Atom AN      X      Y      Z        X      Y      Z        X      Y      Z
   1   6     0.00   0.01  -0.01     0.00  -0.01  -0.00    -0.01  -0.01  -0.00
   2   6    -0.00   0.01   0.04     0.00  -0.05   0.01    -0.00   0.12   0.01
   3   6     0.00  -0.11   0.03    -0.00   0.12   0.02     0.00  -0.03   0.01
   4   6    -0.00   0.09   0.02     0.00  -0.05   0.02     0.00  -0.07   0.00
   5   6    -0.00   0.08  -0.02    -0.00   0.05   0.02     0.00  -0.07  -0.00
   6   6     0.00  -0.11  -0.03     0.00  -0.12   0.02     0.00  -0.03  -0.01
   7   6    -0.00   0.01  -0.04    -0.00   0.05   0.01    -0.00   0.12  -0.01
   8   6     0.00   0.01   0.01    -0.00   0.01  -0.00    -0.01  -0.01   0.00
   9   1     0.00  -0.01   0.02     0.00   0.00  -0.00    -0.00   0.01  -0.02
  10   1    -0.01  -0.01  -0.00    -0.00  -0.00  -0.00     0.02   0.02  -0.00
  11   1    -0.00   0.00   0.00     0.00   0.01   0.01    -0.00   0.02   0.03
  12   1    -0.00  -0.07  -0.10     0.00   0.07   0.12     0.00  -0.23  -0.37
  13   1    -0.00   0.02  -0.02    -0.01   0.11  -0.15     0.01  -0.22   0.33
  14   1    -0.00   0.15   0.25     0.01  -0.24  -0.38    -0.00   0.05   0.08
  15   1    -0.01   0.26  -0.37     0.01  -0.22   0.32    -0.00   0.07  -0.10
  16   1     0.01  -0.18  -0.28    -0.00   0.07   0.11    -0.00   0.12   0.19
  17   1     0.01  -0.14   0.22    -0.01   0.12  -0.18    -0.01   0.13  -0.19
  18   1     0.01  -0.13  -0.20     0.01  -0.12  -0.18    -0.01   0.13   0.19
  19   1     0.01  -0.17   0.26     0.00  -0.07   0.11    -0.00   0.12  -0.19
  20   1    -0.01   0.26   0.38    -0.01   0.22   0.32    -0.00   0.07   0.10
  21   1    -0.00   0.16  -0.26    -0.01   0.25  -0.39    -0.00   0.05  -0.08
  22   1    -0.00   0.02   0.02     0.01  -0.11  -0.16     0.01  -0.23  -0.33
  23   1    -0.00  -0.08   0.11    -0.00  -0.07   0.12     0.00  -0.23   0.37
  24   1     0.00  -0.02  -0.02    -0.00  -0.00  -0.00    -0.00   0.01   0.02
  25   1    -0.01  -0.00   0.00     0.00   0.00  -0.00     0.02   0.02  -0.00
  26   1    -0.00   0.00  -0.00    -0.00  -0.01   0.01    -0.00   0.02  -0.03
                     64                     65                     66
                        a                      a                      a 
 Frequencies --  2979.5295              2983.7265              2990.2368
 Red. masses --     2.0454                 1.5117                 1.5278
 Frc consts  --     0.0000                 0.0000                 0.0000
 IR Inten    --   269.6349                 1.6821               214.5451
 Raman Activ --     0.0000                 0.0000                 0.0000
 Depolar     --     0.0000                 0.0000                 0.0000
 Atom AN      X      Y      Z        X      Y      Z        X      Y      Z
   1   6    -0.00  -0.00   0.02     0.01   0.02   0.00     0.01   0.02   0.00
   2   6    -0.00   0.01  -0.09     0.00  -0.12  -0.01     0.00  -0.07  -0.00
   3   6    -0.00   0.02  -0.13     0.00  -0.07  -0.01     0.00  -0.09  -0.00
   4   6    -0.00  -0.01  -0.14     0.00  -0.04  -0.01     0.00  -0.10  -0.00
   5   6     0.00   0.01  -0.14    -0.00   0.04  -0.01     0.00  -0.10   0.00
   6   6     0.00  -0.02  -0.13    -0.00   0.07  -0.01     0.00  -0.09   0.00
   7   6     0.00  -0.01  -0.09    -0.00   0.12  -0.01     0.00  -0.07   0.00
   8   6     0.00   0.00   0.02    -0.01  -0.02   0.00     0.01   0.02  -0.00
   9   1    -0.00   0.03  -0.04     0.00  -0.03   0.04     0.00  -0.03   0.04
  10   1     0.00   0.00   0.00    -0.04  -0.03   0.00    -0.04  -0.03  -0.00
  11   1     0.00  -0.03  -0.04     0.00  -0.03  -0.05     0.00  -0.03  -0.04
  12   1    -0.00   0.11   0.16    -0.00   0.22   0.36    -0.00   0.13   0.20
  13   1     0.01  -0.14   0.17    -0.01   0.22  -0.33    -0.01   0.13  -0.20
  14   1    -0.00   0.13   0.17    -0.00   0.12   0.19    -0.00   0.14   0.23
  15   1     0.01  -0.21   0.27    -0.01   0.11  -0.17    -0.01   0.15  -0.23
  16   1    -0.00   0.20   0.28    -0.00   0.09   0.14    -0.00   0.17   0.27
  17   1     0.01  -0.17   0.22    -0.00   0.07  -0.10    -0.01   0.18  -0.27
  18   1    -0.01   0.18   0.22     0.00  -0.07  -0.10    -0.01   0.18   0.27
  19   1     0.00  -0.20   0.28     0.00  -0.09   0.14    -0.00   0.17  -0.27
  20   1    -0.01   0.21   0.27     0.01  -0.11  -0.17    -0.01   0.15   0.23
  21   1     0.00  -0.13   0.18     0.00  -0.12   0.19    -0.00   0.14  -0.23
  22   1    -0.01   0.14   0.17     0.01  -0.22  -0.33    -0.01   0.14   0.20
  23   1     0.00  -0.11   0.16     0.00  -0.22   0.36    -0.00   0.12  -0.20
  24   1     0.00  -0.03  -0.04    -0.00   0.03   0.04     0.00  -0.03  -0.04
  25   1    -0.00  -0.00   0.00     0.04   0.03  -0.00    -0.04  -0.03   0.00
  26   1    -0.00   0.03  -0.04    -0.00   0.03  -0.04     0.00  -0.03   0.04
                     67                     68                     69
                        a                      a                      a 
 Frequencies --  3030.0223              3030.2103              3032.3996
 Red. masses --     1.9585                 1.9589                 1.9251
 Frc consts  --     0.0000                 0.0000                 0.0000
 IR Inten    --     0.1942               122.7321                 0.0576
 Raman Activ --     0.0000                 0.0000                 0.0000
 Depolar     --     0.0000                 0.0000                 0.0000
 Atom AN      X      Y      Z        X      Y      Z        X      Y      Z
   1   6     0.01   0.00   0.21    -0.01  -0.00  -0.20     0.09   0.18  -0.01
   2   6     0.00   0.00   0.03    -0.00  -0.00  -0.03     0.00   0.02  -0.00
   3   6     0.00   0.00   0.01    -0.00  -0.00  -0.01     0.00   0.01  -0.00
   4   6     0.00   0.00   0.00    -0.00  -0.00  -0.01    -0.00   0.00  -0.00
   5   6     0.00   0.00  -0.00     0.00  -0.00  -0.01     0.00  -0.00   0.00
   6   6     0.00   0.00  -0.01     0.00   0.00  -0.01    -0.00  -0.01   0.00
   7   6     0.00  -0.00  -0.03     0.00  -0.00  -0.03    -0.00  -0.02  -0.00
   8   6     0.01  -0.00  -0.20     0.01  -0.00  -0.21    -0.09  -0.18  -0.00
   9   1    -0.02   0.29  -0.36     0.02  -0.28   0.34     0.03  -0.20   0.30
  10   1    -0.01  -0.01   0.03     0.01   0.01  -0.03    -0.37  -0.28  -0.00
  11   1     0.01  -0.29  -0.41    -0.01   0.28   0.39     0.02  -0.15  -0.27
  12   1    -0.00  -0.04  -0.05     0.00   0.04   0.05    -0.00  -0.03  -0.04
  13   1    -0.00   0.04  -0.05     0.00  -0.03   0.04     0.00  -0.03   0.05
  14   1    -0.00  -0.01  -0.02     0.00   0.01   0.02    -0.00  -0.02  -0.03
  15   1     0.00   0.01  -0.01    -0.00  -0.01   0.02    -0.00  -0.02   0.03
  16   1     0.00  -0.00  -0.00    -0.00   0.01   0.01     0.00  -0.00  -0.00
  17   1    -0.00   0.00  -0.00     0.00  -0.01   0.01     0.00  -0.00   0.00
  18   1    -0.00   0.00   0.00    -0.00   0.01   0.01    -0.00   0.00   0.00
  19   1     0.00  -0.00   0.00     0.00  -0.01   0.01    -0.00   0.00  -0.00
  20   1     0.00   0.01   0.01     0.00   0.01   0.02     0.00   0.02   0.03
  21   1    -0.00  -0.01   0.01    -0.00  -0.01   0.02     0.00   0.02  -0.03
  22   1    -0.00   0.03   0.04    -0.00   0.04   0.05    -0.00   0.03   0.05
  23   1    -0.00  -0.03   0.05    -0.00  -0.04   0.05     0.00   0.03  -0.05
  24   1    -0.02   0.28   0.34    -0.02   0.30   0.36    -0.03   0.20   0.30
  25   1    -0.01  -0.01  -0.03    -0.01  -0.01  -0.03     0.38   0.28  -0.01
  26   1     0.01  -0.27   0.39     0.01  -0.29   0.41    -0.02   0.16  -0.28
                     70                     71                     72
                        a                      a                      a 
 Frequencies --  3032.5907              3037.7077              3038.1088
 Red. masses --     1.9286                 1.2619                 1.2668
 Frc consts  --     0.0000                 0.0000                 0.0000
 IR Inten    --   123.0321                65.2851                 0.0070
 Raman Activ --     0.0000                 0.0000                 0.0000
 Depolar     --     0.0000                 0.0000                 0.0000
 Atom AN      X      Y      Z        X      Y      Z        X      Y      Z
   1   6     0.10   0.18  -0.01    -0.10   0.03   0.00     0.11  -0.02  -0.00
   2   6     0.00   0.02  -0.00    -0.00   0.00  -0.00     0.00  -0.00   0.00
   3   6    -0.00   0.01  -0.00     0.00   0.00  -0.00    -0.00  -0.00   0.00
   4   6    -0.00   0.01  -0.00    -0.00   0.00  -0.00     0.00   0.00   0.00
   5   6    -0.00   0.01  -0.00    -0.00   0.00  -0.00    -0.00  -0.00   0.00
   6   6    -0.00   0.01  -0.00     0.00   0.00  -0.00     0.00   0.00   0.00
   7   6     0.00   0.02   0.00    -0.00   0.00   0.00    -0.00   0.00   0.00
   8   6     0.09   0.18   0.00    -0.10   0.03  -0.00    -0.11   0.02  -0.00
   9   1     0.03  -0.19   0.30     0.00  -0.22   0.29    -0.00   0.21  -0.28
  10   1    -0.39  -0.29  -0.00     0.37   0.31   0.00    -0.38  -0.31  -0.00
  11   1     0.02  -0.15  -0.27    -0.01  -0.19  -0.29     0.01   0.19   0.29
  12   1    -0.00  -0.03  -0.05    -0.00  -0.00  -0.01     0.00   0.00   0.00
  13   1     0.00  -0.03   0.05    -0.00  -0.00   0.01     0.00   0.00  -0.00
  14   1    -0.00  -0.02  -0.03    -0.00  -0.00  -0.01     0.00   0.00   0.01
  15   1    -0.00  -0.02   0.03     0.00  -0.00   0.01    -0.00   0.01  -0.01
  16   1     0.00  -0.01  -0.02     0.00  -0.00  -0.00    -0.00  -0.00  -0.00
  17   1     0.00  -0.01   0.02     0.00  -0.00   0.00    -0.00  -0.00   0.00
  18   1     0.00  -0.01  -0.01     0.00  -0.00  -0.00     0.00   0.00   0.00
  19   1     0.00  -0.01   0.02     0.00  -0.00   0.00     0.00   0.00  -0.00
  20   1    -0.00  -0.02  -0.03     0.00  -0.00  -0.01     0.00  -0.01  -0.01
  21   1    -0.00  -0.02   0.03    -0.00  -0.00   0.01    -0.00  -0.00   0.01
  22   1     0.00  -0.03  -0.05    -0.00  -0.00  -0.01    -0.00  -0.00  -0.00
  23   1    -0.00  -0.03   0.05    -0.00  -0.00   0.01    -0.00  -0.00   0.00
  24   1     0.03  -0.19  -0.29     0.00  -0.22  -0.29     0.00  -0.21  -0.28
  25   1    -0.38  -0.29   0.01     0.37   0.31  -0.01     0.38   0.31  -0.01
  26   1     0.02  -0.15   0.27    -0.01  -0.19   0.30    -0.01  -0.19   0.29
