 Entering Gaussian System
 *********************************************
 Gaussian 98:
 frequency output generated by the xtb code
 *********************************************
                         Standard orientation:
 --------------------------------------------------------------------
  Center     Atomic     Atomic              Coordinates (Angstroms)
  Number     Number      Type              X           Y           Z
 --------------------------------------------------------------------
    1          6             0        4.440511   -0.269332   -0.038231
    2          6             0        3.149583    0.539497    0.006550
    3          6             0        1.914126   -0.357700    0.006006
    4          6             0        0.617788    0.448644    0.028240
    5          6             0       -0.617817   -0.448366    0.027216
    6          6             0       -1.914236    0.357857    0.005335
    7          6             0       -3.149533   -0.539564    0.007719
    8          6             0       -4.440665    0.268886   -0.037954
    9          1             0        4.507996   -0.928445    0.824645
   10          1             0        5.306020    0.389248   -0.035852
   11          1             0        4.476425   -0.880217   -0.937744
   12          1             0        3.142282    1.162042    0.904180
   13          1             0        3.109973    1.206513   -0.857747
   14          1             0        1.929376   -0.990286   -0.884805
   15          1             0        1.945817   -1.015876    0.877585
   16          1             0        0.602369    1.083962    0.917063
   17          1             0        0.587323    1.104653   -0.845131
   18          1             0       -0.586779   -1.103162   -0.847040
   19          1             0       -0.602909   -1.084923    0.915166
   20          1             0       -1.945331    1.016606    0.876505
   21          1             0       -1.930273    0.989843   -0.885883
   22          1             0       -3.110150   -1.208104   -0.855405
   23          1             0       -3.141708   -1.160522    0.906448
   24          1             0       -4.504885    0.934019    0.820548
   25          1             0       -5.306112   -0.389698   -0.027634
   26          1             0       -4.480085    0.873458   -0.941571
 --------------------------------------------------------------------
     1 basis functions        1 primitive gaussians
     1 alpha electrons        1 beta electrons
 
 Harmonic frequencies (cm**-1), IR intensities (KM/Mole),
 Raman scattering activities (A**4/amu), Raman depolarization ratios,
 reduced masses (AMU), force constants (mDyne/A) and normal coordinates:
                      1                      2                      3
                        a                      a                      a 
 Frequencies --    44.2185                64.0795                80.7178
 Red. masses --    99.0000                99.0000                99.0000
 Frc consts  --    99.0000                99.0000                99.0000
 IR Inten    --    99.0000                99.0000                99.0000
 Raman Activ --     0.0000                 0.0000                 0.0000
 Depolar     --     0.0000                 0.0000                 0.0000
 Atom AN      X      Y      Z        X      Y      Z        X      Y      Z
   1   6    -0.01   0.00  -0.46     0.00   0.01  -0.06     0.09   0.42  -0.00
   2   6    -0.00  -0.00  -0.02     0.00  -0.01   0.36    -0.13   0.08  -0.01
   3   6    -0.00  -0.00   0.16    -0.00  -0.00  -0.22     0.07  -0.19   0.02
   4   6     0.00  -0.00   0.36     0.00  -0.00  -0.07    -0.03  -0.35   0.00
   5   6    -0.00   0.00   0.36    -0.00  -0.00  -0.07    -0.03  -0.35  -0.00
   6   6     0.00   0.00   0.16     0.00  -0.00  -0.22     0.07  -0.19  -0.02
   7   6     0.00   0.00  -0.02    -0.00   0.01   0.36    -0.13   0.08   0.01
   8   6     0.01  -0.00  -0.46    -0.00  -0.01  -0.06     0.09   0.42   0.00
   9   1     0.06  -0.04  -0.17    -0.02  -0.16  -0.14     0.08   0.13   0.00
  10   1    -0.00   0.00  -0.16     0.00  -0.00   0.13    -0.03   0.19  -0.01
  11   1    -0.07   0.04  -0.16     0.02   0.17  -0.13     0.07   0.12   0.00
  12   1     0.06  -0.04   0.02    -0.01  -0.16   0.21    -0.08   0.03  -0.01
  13   1    -0.06   0.03   0.02     0.01   0.14   0.22    -0.09   0.01  -0.01
  14   1    -0.04   0.01   0.04     0.04   0.11  -0.14     0.05  -0.06   0.01
  15   1     0.04  -0.01   0.04    -0.04  -0.11  -0.14     0.05  -0.05   0.01
  16   1     0.02  -0.02   0.12     0.01  -0.03  -0.00    -0.02  -0.10  -0.00
  17   1    -0.02   0.02   0.12    -0.01   0.03  -0.00    -0.02  -0.10   0.00
  18   1     0.02  -0.02   0.12     0.01  -0.03  -0.00    -0.02  -0.10  -0.00
  19   1    -0.02   0.02   0.12    -0.02   0.03  -0.00    -0.02  -0.10   0.00
  20   1    -0.04   0.01   0.04     0.04   0.11  -0.14     0.05  -0.05  -0.01
  21   1     0.04  -0.01   0.04    -0.04  -0.11  -0.14     0.05  -0.06  -0.01
  22   1     0.06  -0.03   0.02    -0.01  -0.14   0.22    -0.09   0.02   0.01
  23   1    -0.06   0.04   0.02     0.01   0.16   0.21    -0.08   0.03   0.01
  24   1    -0.06   0.04  -0.17     0.02   0.16  -0.14     0.08   0.13  -0.00
  25   1     0.00  -0.00  -0.16    -0.00   0.00   0.13    -0.03   0.19   0.01
  26   1     0.07  -0.04  -0.16    -0.02  -0.17  -0.13     0.07   0.12  -0.00
                      4                      5                      6
                        a                      a                      a 
 Frequencies --   100.9042               127.1071               146.2214
 Red. masses --    99.0000                99.0000                99.0000
 Frc consts  --    99.0000                99.0000                99.0000
 IR Inten    --    99.0000                99.0000                99.0000
 Raman Activ --     0.0000                 0.0000                 0.0000
 Depolar     --     0.0000                 0.0000                 0.0000
 Atom AN      X      Y      Z        X      Y      Z        X      Y      Z
   1   6    -0.01  -0.00  -0.29    -0.00  -0.01  -0.00     0.00  -0.01   0.14
   2   6     0.01  -0.00   0.21     0.00   0.01  -0.16    -0.00   0.00  -0.18
   3   6     0.00  -0.00   0.43     0.00   0.01   0.17    -0.01   0.01  -0.33
   4   6     0.00   0.01   0.02     0.00   0.00   0.41     0.00   0.00   0.35
   5   6     0.00   0.01  -0.02     0.00   0.00  -0.41    -0.00  -0.00   0.35
   6   6     0.00  -0.00  -0.43     0.00   0.01  -0.17     0.01  -0.01  -0.33
   7   6     0.01  -0.00  -0.21     0.00   0.01   0.16     0.00  -0.00  -0.18
   8   6    -0.01  -0.00   0.29    -0.00  -0.01   0.00    -0.00   0.01   0.14
   9   1     0.06  -0.05  -0.13     0.04   0.12   0.09    -0.04   0.04   0.08
  10   1    -0.00  -0.00  -0.11    -0.00  -0.00  -0.14     0.00  -0.00   0.05
  11   1    -0.07   0.05  -0.13    -0.05  -0.13   0.08     0.04  -0.05   0.07
  12   1     0.08  -0.03   0.08     0.02   0.08  -0.10    -0.05   0.02  -0.06
  13   1    -0.07   0.03   0.09    -0.02  -0.07  -0.10     0.05  -0.01  -0.06
  14   1     0.02  -0.08   0.18    -0.05  -0.00   0.05    -0.06   0.12  -0.18
  15   1    -0.02   0.08   0.19     0.05   0.01   0.05     0.05  -0.11  -0.18
  16   1    -0.05   0.06  -0.04    -0.05  -0.16   0.23     0.07  -0.09   0.17
  17   1     0.05  -0.06  -0.04     0.05   0.16   0.23    -0.07   0.09   0.17
  18   1     0.05  -0.06   0.04     0.05   0.16  -0.23     0.07  -0.09   0.17
  19   1    -0.05   0.06   0.04    -0.05  -0.16  -0.23    -0.07   0.09   0.17
  20   1    -0.02   0.08  -0.19     0.05   0.01  -0.05    -0.05   0.11  -0.18
  21   1     0.02  -0.08  -0.18    -0.05  -0.00  -0.05     0.06  -0.12  -0.18
  22   1    -0.07   0.03  -0.09    -0.01  -0.07   0.10    -0.04   0.01  -0.06
  23   1     0.08  -0.03  -0.08     0.02   0.08   0.10     0.05  -0.02  -0.06
  24   1     0.06  -0.05   0.13     0.04   0.12  -0.09     0.04  -0.04   0.08
  25   1    -0.00  -0.00   0.11    -0.00  -0.00   0.14    -0.00   0.00   0.05
  26   1    -0.07   0.05   0.12    -0.05  -0.13  -0.08    -0.04   0.05   0.07
                      7                      8                      9
                        a                      a                      a 
 Frequencies --   232.0756               234.2651               199.4124
 Red. masses --    99.0000                99.0000                99.0000
 Frc consts  --    99.0000                99.0000                99.0000
 IR Inten    --    99.0000                99.0000                99.0000
 Raman Activ --     0.0000                 0.0000                 0.0000
 Depolar     --     0.0000                 0.0000                 0.0000
 Atom AN      X      Y      Z        X      Y      Z        X      Y      Z
   1   6    -0.01  -0.01  -0.03     0.00   0.00  -0.03    -0.22  -0.26  -0.00
   2   6     0.00   0.00   0.19     0.00  -0.01   0.19     0.07   0.22   0.00
   3   6    -0.00   0.01  -0.09    -0.00  -0.00  -0.11    -0.03   0.37   0.01
   4   6    -0.01   0.01  -0.05     0.00   0.01  -0.09    -0.12   0.18  -0.01
   5   6     0.00  -0.01  -0.06     0.00   0.01   0.09     0.12  -0.18  -0.01
   6   6     0.00  -0.01  -0.09    -0.00  -0.00   0.11     0.03  -0.37   0.01
   7   6    -0.00  -0.00   0.19     0.00  -0.01  -0.19    -0.07  -0.22   0.00
   8   6     0.01   0.01  -0.03     0.00   0.00   0.03     0.22   0.26  -0.00
   9   1     0.20   0.24   0.16     0.21   0.24   0.16    -0.15  -0.09  -0.01
  10   1    -0.01   0.00  -0.39    -0.01   0.01  -0.39     0.02  -0.18   0.01
  11   1    -0.21  -0.25   0.15    -0.20  -0.24   0.15    -0.13  -0.07  -0.00
  12   1     0.01  -0.06   0.09     0.00  -0.07   0.10     0.07   0.06   0.00
  13   1     0.00   0.06   0.10     0.00   0.06   0.10     0.07   0.06  -0.00
  14   1     0.02   0.06  -0.06     0.02   0.06  -0.07    -0.00   0.10   0.00
  15   1    -0.02  -0.05  -0.07    -0.03  -0.06  -0.07    -0.01   0.11   0.00
  16   1    -0.00  -0.01  -0.01     0.02   0.03  -0.04    -0.08   0.05  -0.00
  17   1    -0.00   0.01  -0.01    -0.02  -0.02  -0.04    -0.08   0.05  -0.00
  18   1     0.00  -0.01  -0.01    -0.02  -0.02   0.04     0.08  -0.05  -0.00
  19   1     0.00   0.01  -0.01     0.02   0.03   0.04     0.08  -0.05  -0.00
  20   1     0.02   0.05  -0.07    -0.03  -0.06   0.07     0.01  -0.11   0.00
  21   1    -0.02  -0.06  -0.07     0.02   0.06   0.07     0.00  -0.10   0.00
  22   1    -0.00  -0.06   0.10     0.00   0.06  -0.10    -0.07  -0.06  -0.00
  23   1    -0.01   0.06   0.10     0.00  -0.07  -0.10    -0.07  -0.06   0.00
  24   1    -0.20  -0.24   0.16     0.20   0.23  -0.16     0.15   0.09  -0.01
  25   1     0.01  -0.01  -0.40    -0.01   0.01   0.38    -0.02   0.18   0.01
  26   1     0.21   0.25   0.15    -0.20  -0.24  -0.14     0.13   0.07  -0.01
                     10                     11                     12
                        a                      a                      a 
 Frequencies --   279.0418               341.7432               469.5102
 Red. masses --    99.0000                99.0000                99.0000
 Frc consts  --    99.0000                99.0000                99.0000
 IR Inten    --    99.0000                99.0000                99.0000
 Raman Activ --     0.0000                 0.0000                 0.0000
 Depolar     --     0.0000                 0.0000                 0.0000
 Atom AN      X      Y      Z        X      Y      Z        X      Y      Z
   1   6    -0.41   0.06   0.01    -0.24  -0.12   0.00    -0.22  -0.01   0.00
   2   6    -0.40  -0.01   0.00     0.07   0.34   0.01     0.01   0.26   0.01
   3   6    -0.23  -0.15  -0.00     0.21   0.14  -0.01     0.33  -0.18  -0.01
   4   6    -0.05  -0.01  -0.01    -0.02  -0.30  -0.01     0.27  -0.25  -0.00
   5   6     0.05   0.01  -0.01    -0.02  -0.30   0.01    -0.16   0.29  -0.00
   6   6     0.23   0.15  -0.00     0.21   0.14   0.01    -0.30   0.12  -0.01
   7   6     0.40   0.01   0.00     0.07   0.34  -0.01    -0.07  -0.26   0.01
   8   6     0.41  -0.06   0.01    -0.24  -0.12  -0.00     0.14   0.03   0.00
   9   1    -0.12   0.02   0.00    -0.16  -0.04   0.00    -0.15  -0.01   0.00
  10   1    -0.12   0.02   0.00     0.03  -0.16  -0.01     0.02  -0.12  -0.00
  11   1    -0.12   0.02   0.00    -0.16  -0.05   0.00    -0.15  -0.02   0.00
  12   1    -0.14  -0.00   0.00     0.04   0.09   0.01    -0.01   0.07   0.00
  13   1    -0.14  -0.01   0.00     0.04   0.09   0.00    -0.02   0.07  -0.00
  14   1    -0.07  -0.04  -0.00     0.12   0.04  -0.00     0.16  -0.04  -0.01
  15   1    -0.07  -0.04   0.00     0.12   0.04  -0.00     0.16  -0.05  -0.00
  16   1    -0.00  -0.00  -0.00    -0.04  -0.08  -0.01     0.14  -0.07  -0.00
  17   1    -0.00  -0.01  -0.00    -0.04  -0.09  -0.00     0.14  -0.06   0.00
  18   1     0.00   0.01  -0.00    -0.04  -0.09   0.00    -0.09   0.07   0.00
  19   1     0.00   0.00  -0.00    -0.04  -0.08   0.01    -0.09   0.08  -0.00
  20   1     0.07   0.04   0.00     0.12   0.04   0.01    -0.16   0.03  -0.00
  21   1     0.07   0.04  -0.00     0.12   0.04   0.00    -0.15   0.03  -0.00
  22   1     0.14   0.01  -0.00     0.04   0.09  -0.00    -0.01  -0.07  -0.00
  23   1     0.14   0.00   0.00     0.04   0.09  -0.01    -0.01  -0.07   0.00
  24   1     0.12  -0.02   0.00    -0.16  -0.04  -0.00     0.12   0.02  -0.00
  25   1     0.12  -0.02   0.00     0.03  -0.16   0.01    -0.04   0.12  -0.00
  26   1     0.12  -0.02   0.00    -0.16  -0.05  -0.00     0.12   0.02   0.00
                     13                     14                     15
                        a                      a                      a 
 Frequencies --   469.5431               768.1644               840.2965
 Red. masses --    99.0000                99.0000                99.0000
 Frc consts  --    99.0000                99.0000                99.0000
 IR Inten    --    99.0000                99.0000                99.0000
 Raman Activ --     0.0000                 0.0000                 0.0000
 Depolar     --     0.0000                 0.0000                 0.0000
 Atom AN      X      Y      Z        X      Y      Z        X      Y      Z
   1   6     0.26  -0.06  -0.01     0.00  -0.00   0.00    -0.00   0.00  -0.07
   2   6     0.21   0.01  -0.00     0.00  -0.00   0.05    -0.00   0.00  -0.16
   3   6    -0.06   0.20   0.00     0.00  -0.00   0.09     0.00  -0.00   0.14
   4   6    -0.38  -0.19  -0.00    -0.00  -0.00   0.12     0.00  -0.00   0.15
   5   6    -0.44  -0.12   0.00     0.00   0.00   0.12     0.00  -0.00  -0.15
   6   6    -0.14   0.24  -0.01    -0.00   0.00   0.09     0.00  -0.00  -0.14
   7   6     0.20  -0.06   0.00    -0.00   0.00   0.05    -0.00   0.00   0.16
   8   6     0.31  -0.05   0.01    -0.00   0.00   0.00    -0.00   0.00   0.07
   9   1     0.09  -0.01  -0.00     0.04  -0.04  -0.03    -0.18   0.13   0.09
  10   1     0.06   0.00  -0.00     0.00  -0.00  -0.01    -0.00  -0.00   0.10
  11   1     0.09  -0.01  -0.00    -0.04   0.04  -0.03     0.18  -0.13   0.08
  12   1     0.09   0.00  -0.00     0.02   0.14  -0.09     0.11  -0.19   0.09
  13   1     0.10   0.01   0.00    -0.03  -0.14  -0.10    -0.11   0.18   0.11
  14   1    -0.00   0.05   0.00    -0.03   0.24  -0.15    -0.12   0.15  -0.08
  15   1    -0.00   0.05  -0.00     0.03  -0.23  -0.16     0.12  -0.15  -0.09
  16   1    -0.16  -0.05  -0.00    -0.00   0.30  -0.19    -0.12   0.17  -0.09
  17   1    -0.16  -0.05   0.00    -0.00  -0.29  -0.19     0.12  -0.17  -0.09
  18   1    -0.19  -0.03  -0.00     0.00   0.29  -0.19     0.12  -0.17   0.09
  19   1    -0.19  -0.03   0.00     0.00  -0.30  -0.19    -0.12   0.17   0.09
  20   1    -0.05   0.06   0.00    -0.03   0.23  -0.16     0.12  -0.15   0.09
  21   1    -0.05   0.06  -0.00     0.03  -0.24  -0.15    -0.12   0.15   0.08
  22   1     0.10  -0.01  -0.00     0.03   0.14  -0.10    -0.11   0.18  -0.11
  23   1     0.10  -0.01   0.00    -0.02  -0.14  -0.09     0.11  -0.19  -0.09
  24   1     0.13  -0.01   0.00    -0.04   0.04  -0.03    -0.18   0.13  -0.09
  25   1     0.05   0.03   0.00    -0.00   0.00  -0.01    -0.00  -0.00  -0.10
  26   1     0.12  -0.01   0.00     0.04  -0.04  -0.03     0.18  -0.13  -0.08
                     16                     17                     18
                        a                      a                      a 
 Frequencies --   773.0483               794.4382               903.3237
 Red. masses --    99.0000                99.0000                99.0000
 Frc consts  --    99.0000                99.0000                99.0000
 IR Inten    --    99.0000                99.0000                99.0000
 Raman Activ --     0.0000                 0.0000                 0.0000
 Depolar     --     0.0000                 0.0000                 0.0000
 Atom AN      X      Y      Z        X      Y      Z        X      Y      Z
   1   6    -0.00   0.00  -0.01     0.00  -0.00   0.03     0.00  -0.00   0.12
   2   6    -0.00   0.00  -0.12     0.00  -0.00   0.17     0.00  -0.00   0.05
   3   6    -0.00   0.00  -0.13    -0.00   0.00   0.05    -0.00   0.00  -0.22
   4   6     0.00  -0.00  -0.06    -0.00   0.00  -0.14     0.00   0.00   0.12
   5   6     0.00  -0.00   0.06     0.00  -0.00  -0.14    -0.00  -0.00   0.12
   6   6    -0.00   0.00   0.13     0.00  -0.00   0.05     0.00  -0.00  -0.22
   7   6    -0.00   0.00   0.12    -0.00   0.00   0.17    -0.00   0.00   0.05
   8   6    -0.00   0.00   0.01    -0.00   0.00   0.03    -0.00   0.00   0.12
   9   1    -0.09   0.07   0.06     0.14  -0.11  -0.09     0.20  -0.13  -0.09
  10   1     0.00  -0.00   0.04    -0.00   0.00  -0.07     0.00   0.00  -0.11
  11   1     0.09  -0.08   0.05    -0.14   0.11  -0.07    -0.20   0.14  -0.08
  12   1    -0.02  -0.26   0.15    -0.02   0.28  -0.15    -0.20   0.05  -0.02
  13   1     0.03   0.25   0.16     0.01  -0.27  -0.17     0.20  -0.05  -0.03
  14   1    -0.01  -0.28   0.16     0.11   0.08  -0.05    -0.03  -0.21   0.09
  15   1     0.01   0.27   0.17    -0.11  -0.08  -0.05     0.03   0.20   0.10
  16   1     0.08  -0.12   0.07    -0.06  -0.21   0.12     0.17   0.12  -0.05
  17   1    -0.07   0.11   0.07     0.06   0.21   0.12    -0.16  -0.12  -0.05
  18   1    -0.07   0.11  -0.07    -0.06  -0.21   0.12     0.16   0.12  -0.05
  19   1     0.08  -0.12  -0.07     0.06   0.21   0.12    -0.17  -0.12  -0.05
  20   1     0.01   0.27  -0.17     0.11   0.08  -0.05    -0.03  -0.20   0.10
  21   1    -0.01  -0.28  -0.16    -0.11  -0.08  -0.05     0.03   0.21   0.09
  22   1     0.03   0.25  -0.16    -0.01   0.27  -0.17    -0.20   0.05  -0.03
  23   1    -0.02  -0.26  -0.15     0.02  -0.28  -0.15     0.20  -0.05  -0.02
  24   1    -0.09   0.07  -0.06    -0.14   0.11  -0.09    -0.20   0.13  -0.09
  25   1     0.00  -0.00  -0.04     0.00  -0.00  -0.07    -0.00  -0.00  -0.11
  26   1     0.09  -0.08  -0.05     0.14  -0.11  -0.07     0.20  -0.14  -0.08
                     19                     20                     21
                        a                      a                      a 
 Frequencies --  1504.7887              1504.8007              1507.9010
 Red. masses --    99.0000                99.0000                99.0000
 Frc consts  --    99.0000                99.0000                99.0000
 IR Inten    --    99.0000                99.0000                99.0000
 Raman Activ --     0.0000                 0.0000                 0.0000
 Depolar     --     0.0000                 0.0000                 0.0000
 Atom AN      X      Y      Z        X      Y      Z        X      Y      Z
   1   6    -0.00   0.01  -0.21     0.00   0.01  -0.04    -0.07  -0.13  -0.00
   2   6     0.00   0.01  -0.04     0.00   0.03  -0.01    -0.03  -0.08  -0.00
   3   6    -0.00  -0.02   0.00    -0.00  -0.02   0.00     0.02  -0.03  -0.00
   4   6    -0.00   0.01   0.00    -0.00   0.04   0.00    -0.01  -0.01  -0.00
   5   6     0.00  -0.02  -0.00     0.00  -0.03   0.00    -0.01  -0.01   0.00
   6   6    -0.00   0.01  -0.00     0.00   0.03   0.00     0.02  -0.03   0.00
   7   6    -0.00  -0.01   0.01    -0.00  -0.03  -0.04    -0.03  -0.08   0.00
   8   6    -0.00  -0.00   0.05    -0.00  -0.01  -0.20    -0.07  -0.13   0.00
   9   1     0.42   0.15   0.07     0.07   0.02   0.00     0.08   0.34   0.26
  10   1     0.01  -0.01   0.69    -0.01   0.01   0.13     0.13  -0.18  -0.01
  11   1    -0.42  -0.16   0.08    -0.08  -0.04   0.02     0.08   0.35  -0.24
  12   1     0.02  -0.04   0.02     0.00  -0.06   0.04     0.02   0.09  -0.07
  13   1    -0.02  -0.00  -0.02    -0.01  -0.06  -0.05     0.02   0.09   0.08
  14   1     0.02   0.03  -0.02     0.00   0.05  -0.04    -0.01   0.07  -0.05
  15   1    -0.02   0.03   0.02    -0.00   0.05   0.04    -0.01   0.07   0.05
  16   1    -0.00  -0.02   0.02     0.00  -0.08   0.06     0.00   0.01  -0.01
  17   1     0.00  -0.03  -0.02     0.00  -0.08  -0.06     0.00   0.01   0.01
  18   1    -0.00   0.03  -0.03    -0.01   0.07  -0.05     0.00   0.01  -0.01
  19   1    -0.00   0.03   0.03     0.00   0.07   0.05     0.00   0.01   0.01
  20   1    -0.00  -0.01   0.01     0.02  -0.06   0.05    -0.01   0.07  -0.05
  21   1     0.01  -0.01  -0.01    -0.02  -0.07  -0.05    -0.01   0.07   0.05
  22   1    -0.00   0.03  -0.02     0.02   0.04  -0.05     0.02   0.09  -0.08
  23   1     0.00   0.02   0.02    -0.02   0.08   0.04     0.02   0.09   0.07
  24   1     0.10   0.04  -0.02    -0.40  -0.14   0.06     0.08   0.34  -0.26
  25   1     0.00  -0.01  -0.16    -0.00   0.01   0.67     0.13  -0.18   0.01
  26   1    -0.09  -0.03  -0.01     0.41   0.17   0.08     0.08   0.35   0.24
                     22                     23                     24
                        a                      a                      a 
 Frequencies --  1508.0979               967.7511              1199.0583
 Red. masses --    99.0000                99.0000                99.0000
 Frc consts  --    99.0000                99.0000                99.0000
 IR Inten    --    99.0000                99.0000                99.0000
 Raman Activ --     0.0000                 0.0000                 0.0000
 Depolar     --     0.0000                 0.0000                 0.0000
 Atom AN      X      Y      Z        X      Y      Z        X      Y      Z
   1   6     0.07   0.13   0.00    -0.01   0.00  -0.13    -0.00  -0.00  -0.17
   2   6     0.03   0.06   0.00     0.00  -0.00   0.08     0.01   0.00   0.26
   3   6    -0.02   0.04   0.00     0.00   0.00   0.08    -0.00  -0.00  -0.28
   4   6     0.01  -0.02  -0.00    -0.00  -0.00  -0.19     0.00   0.00   0.29
   5   6    -0.01   0.02  -0.00    -0.00  -0.00   0.19     0.00  -0.00  -0.29
   6   6     0.02  -0.04   0.00     0.00   0.01  -0.08    -0.00  -0.00   0.28
   7   6    -0.03  -0.06   0.00     0.00  -0.01  -0.08     0.01   0.00  -0.26
   8   6    -0.07  -0.13   0.00    -0.01  -0.00   0.13    -0.00   0.00   0.17
   9   1    -0.08  -0.34  -0.26    -0.17   0.12   0.07    -0.12   0.10   0.05
  10   1    -0.13   0.18   0.01    -0.01   0.00   0.09    -0.00   0.00   0.07
  11   1    -0.08  -0.35   0.24     0.18  -0.12   0.06     0.13  -0.10   0.04
  12   1    -0.02  -0.06   0.05     0.24   0.07  -0.03    -0.00   0.16  -0.05
  13   1    -0.02  -0.06  -0.05    -0.23  -0.07  -0.02    -0.00  -0.15  -0.05
  14   1     0.01  -0.10   0.07     0.24   0.08  -0.03     0.03  -0.16   0.05
  15   1     0.01  -0.10  -0.07    -0.24  -0.07  -0.03    -0.04   0.16   0.06
  16   1    -0.00   0.06  -0.04     0.10  -0.15   0.07    -0.01   0.17  -0.06
  17   1    -0.00   0.05   0.04    -0.10   0.15   0.07     0.00  -0.17  -0.06
  18   1     0.00  -0.05   0.04    -0.10   0.15  -0.07     0.00  -0.17   0.06
  19   1     0.00  -0.06  -0.04     0.10  -0.15  -0.07    -0.01   0.17   0.06
  20   1    -0.01   0.10  -0.07    -0.23  -0.07   0.03    -0.04   0.16  -0.06
  21   1    -0.01   0.10   0.07     0.24   0.08   0.03     0.03  -0.16  -0.05
  22   1     0.02   0.06  -0.05    -0.23  -0.07   0.02    -0.00  -0.15   0.05
  23   1     0.02   0.06   0.05     0.24   0.07   0.03    -0.00   0.16   0.05
  24   1     0.08   0.33  -0.26    -0.17   0.12  -0.08    -0.12   0.10  -0.05
  25   1     0.13  -0.18   0.01    -0.01   0.01  -0.09    -0.00   0.00  -0.07
  26   1     0.08   0.35   0.24     0.19  -0.12  -0.06     0.13  -0.10  -0.04
                     25                     26                     27
                        a                      a                      a 
 Frequencies --  1019.5724              1217.0259              1498.5412
 Red. masses --    99.0000                99.0000                99.0000
 Frc consts  --    99.0000                99.0000                99.0000
 IR Inten    --    99.0000                99.0000                99.0000
 Raman Activ --     0.0000                 0.0000                 0.0000
 Depolar     --     0.0000                 0.0000                 0.0000
 Atom AN      X      Y      Z        X      Y      Z        X      Y      Z
   1   6    -0.01   0.01  -0.10     0.00  -0.00   0.23    -0.01  -0.04  -0.00
   2   6     0.01  -0.01   0.12    -0.01   0.01  -0.31    -0.03   0.10   0.00
   3   6     0.01  -0.00  -0.08     0.00  -0.00   0.21    -0.01   0.17   0.00
   4   6     0.01   0.02   0.03    -0.00   0.00  -0.08     0.02   0.04   0.00
   5   6    -0.01  -0.02   0.03     0.00  -0.00  -0.08    -0.02  -0.04   0.00
   6   6    -0.01   0.00  -0.08    -0.00   0.00   0.21     0.01  -0.17   0.00
   7   6    -0.01   0.01   0.12     0.01  -0.01  -0.31     0.03  -0.10   0.00
   8   6     0.01  -0.01  -0.10    -0.00   0.00   0.23     0.01   0.04  -0.01
   9   1    -0.11   0.08   0.04     0.16  -0.13  -0.06     0.02   0.11   0.08
  10   1    -0.00  -0.00   0.06    -0.00   0.00  -0.10     0.04  -0.05   0.01
  11   1     0.11  -0.08   0.04    -0.17   0.13  -0.05     0.01   0.11  -0.08
  12   1     0.17   0.09  -0.04     0.10  -0.17   0.05     0.03  -0.20   0.14
  13   1    -0.17  -0.10  -0.04    -0.09   0.17   0.06     0.02  -0.19  -0.15
  14   1     0.27  -0.05   0.02     0.11   0.12  -0.04     0.02  -0.30   0.22
  15   1    -0.27   0.05   0.03    -0.10  -0.12  -0.04     0.01  -0.30  -0.23
  16   1     0.31   0.04  -0.01     0.17  -0.04   0.01    -0.01  -0.05   0.04
  17   1    -0.31  -0.03  -0.01    -0.17   0.04   0.02    -0.01  -0.05  -0.04
  18   1     0.31   0.03  -0.01     0.17  -0.04   0.02     0.01   0.05  -0.04
  19   1    -0.31  -0.04  -0.01    -0.17   0.04   0.01     0.01   0.05   0.04
  20   1     0.27  -0.05   0.03     0.10   0.12  -0.04    -0.01   0.30  -0.23
  21   1    -0.27   0.05   0.02    -0.11  -0.12  -0.04    -0.02   0.30   0.22
  22   1     0.17   0.10  -0.04     0.09  -0.17   0.06    -0.02   0.19  -0.15
  23   1    -0.17  -0.09  -0.04    -0.10   0.17   0.05    -0.03   0.20   0.14
  24   1     0.11  -0.08   0.05    -0.16   0.13  -0.06    -0.02  -0.11   0.08
  25   1     0.00   0.00   0.06    -0.00  -0.00  -0.10    -0.04   0.05   0.01
  26   1    -0.11   0.08   0.04     0.17  -0.13  -0.05    -0.01  -0.11  -0.07
                     28                     29                     30
                        a                      a                      a 
 Frequencies --  1495.6628              1495.7911              1501.7661
 Red. masses --    99.0000                99.0000                99.0000
 Frc consts  --    99.0000                99.0000                99.0000
 IR Inten    --    99.0000                99.0000                99.0000
 Raman Activ --     0.0000                 0.0000                 0.0000
 Depolar     --     0.0000                 0.0000                 0.0000
 Atom AN      X      Y      Z        X      Y      Z        X      Y      Z
   1   6    -0.00  -0.03  -0.00    -0.00   0.02   0.00     0.01   0.03   0.00
   2   6    -0.02   0.09   0.00    -0.01  -0.12  -0.00     0.02  -0.08  -0.00
   3   6    -0.03   0.13   0.00     0.02   0.06   0.00    -0.01  -0.10  -0.00
   4   6     0.03  -0.12  -0.00     0.02   0.14   0.00     0.01  -0.17  -0.00
   5   6     0.03  -0.12   0.00    -0.02  -0.14   0.00     0.01  -0.17   0.00
   6   6    -0.03   0.13  -0.00    -0.02  -0.07   0.00    -0.01  -0.10   0.00
   7   6    -0.02   0.09  -0.00     0.01   0.12  -0.00     0.02  -0.08   0.00
   8   6    -0.00  -0.03   0.00     0.00  -0.02  -0.00     0.01   0.03  -0.01
   9   1     0.01   0.08   0.06     0.01  -0.05  -0.04    -0.02  -0.08  -0.06
  10   1     0.03  -0.03   0.00    -0.01   0.01   0.00    -0.03   0.03  -0.01
  11   1     0.01   0.08  -0.06     0.01  -0.06   0.04    -0.00  -0.08   0.05
  12   1     0.02  -0.16   0.12    -0.01   0.24  -0.17    -0.01   0.15  -0.11
  13   1     0.02  -0.16  -0.13    -0.00   0.23   0.18    -0.01   0.14   0.11
  14   1     0.03  -0.25   0.18    -0.01  -0.12   0.09    -0.00   0.16  -0.12
  15   1     0.02  -0.24  -0.19    -0.02  -0.12  -0.09     0.00   0.16   0.12
  16   1    -0.03   0.23  -0.17    -0.00  -0.28   0.20    -0.02   0.30  -0.22
  17   1    -0.02   0.22   0.17    -0.01  -0.27  -0.21    -0.01   0.30   0.23
  18   1    -0.02   0.23  -0.18     0.01   0.27  -0.20    -0.01   0.30  -0.23
  19   1    -0.03   0.24   0.17     0.00   0.27   0.20    -0.02   0.30   0.22
  20   1     0.02  -0.24   0.18     0.02   0.12  -0.10     0.00   0.16  -0.12
  21   1     0.03  -0.24  -0.18     0.01   0.13   0.09    -0.00   0.16   0.12
  22   1     0.02  -0.16   0.13     0.00  -0.23   0.18    -0.01   0.14  -0.11
  23   1     0.02  -0.17  -0.12     0.01  -0.24  -0.17    -0.01   0.15   0.11
  24   1     0.01   0.08  -0.06    -0.01   0.05  -0.04    -0.02  -0.08   0.06
  25   1     0.03  -0.03  -0.01     0.01  -0.01   0.00    -0.03   0.03   0.01
  26   1     0.00   0.08   0.06    -0.00   0.06   0.04    -0.00  -0.08  -0.05
                     31                     32                     33
                        a                      a                      a 
 Frequencies --   933.3927               948.9666              1499.2938
 Red. masses --    99.0000                99.0000                99.0000
 Frc consts  --    99.0000                99.0000                99.0000
 IR Inten    --    99.0000                99.0000                99.0000
 Raman Activ --     0.0000                 0.0000                 0.0000
 Depolar     --     0.0000                 0.0000                 0.0000
 Atom AN      X      Y      Z        X      Y      Z        X      Y      Z
   1   6     0.24   0.08  -0.01    -0.27  -0.08   0.00    -0.01   0.02  -0.00
   2   6     0.07   0.21   0.00    -0.03  -0.19  -0.00    -0.01  -0.15  -0.00
   3   6    -0.11  -0.30   0.00     0.19   0.22   0.00     0.01   0.12   0.00
   4   6    -0.11   0.10  -0.00     0.09  -0.04  -0.00     0.00   0.02   0.00
   5   6    -0.11   0.10   0.00    -0.09   0.04   0.00     0.00   0.02  -0.00
   6   6    -0.11  -0.30   0.00    -0.19  -0.22   0.00     0.01   0.12  -0.00
   7   6     0.07   0.21  -0.01     0.03   0.19  -0.01    -0.01  -0.15   0.00
   8   6     0.24   0.08   0.01     0.27   0.08   0.00    -0.01   0.02   0.00
   9   1    -0.17  -0.02  -0.01     0.16   0.02   0.01     0.02  -0.04  -0.03
  10   1     0.29  -0.29  -0.01    -0.31   0.29   0.01     0.00  -0.00   0.01
  11   1    -0.15  -0.03   0.02     0.16   0.03  -0.02     0.01  -0.05   0.03
  12   1    -0.07   0.05   0.00     0.09  -0.05  -0.00    -0.00   0.30  -0.21
  13   1    -0.09   0.05   0.00     0.09  -0.05  -0.00     0.00   0.29   0.23
  14   1    -0.05  -0.08  -0.00     0.10   0.06   0.00    -0.00  -0.24   0.17
  15   1    -0.06  -0.08  -0.00     0.11   0.06  -0.00    -0.00  -0.24  -0.18
  16   1     0.01   0.02   0.00     0.03  -0.01  -0.00    -0.01  -0.02   0.02
  17   1     0.01   0.03   0.00     0.03  -0.01   0.00    -0.01  -0.02  -0.02
  18   1     0.01   0.03  -0.00    -0.03   0.01   0.00    -0.01  -0.02   0.02
  19   1     0.01   0.02  -0.00    -0.03   0.00  -0.00    -0.01  -0.02  -0.02
  20   1    -0.06  -0.08   0.00    -0.11  -0.06  -0.00    -0.00  -0.24   0.18
  21   1    -0.05  -0.08   0.00    -0.10  -0.06   0.00    -0.00  -0.24  -0.17
  22   1    -0.09   0.05  -0.00    -0.10   0.05  -0.00     0.00   0.29  -0.23
  23   1    -0.08   0.05  -0.00    -0.09   0.05  -0.00    -0.00   0.30   0.21
  24   1    -0.17  -0.02   0.01    -0.16  -0.02   0.01     0.02  -0.04   0.03
  25   1     0.30  -0.29   0.01     0.31  -0.29   0.01     0.00  -0.00  -0.01
  26   1    -0.15  -0.03  -0.02    -0.15  -0.03  -0.02     0.01  -0.05  -0.03
                     34                     35                     36
                        a                      a                      a 
 Frequencies --  1504.4280              1248.9078              1044.2625
 Red. masses --    99.0000                99.0000                99.0000
 Frc consts  --    99.0000                99.0000                99.0000
 IR Inten    --    99.0000                99.0000                99.0000
 Raman Activ --     0.0000                 0.0000                 0.0000
 Depolar     --     0.0000                 0.0000                 0.0000
 Atom AN      X      Y      Z        X      Y      Z        X      Y      Z
   1   6    -0.02  -0.01  -0.04     0.01   0.00   0.20    -0.14   0.19   0.01
   2   6    -0.01  -0.11  -0.01    -0.01  -0.01  -0.16     0.15  -0.22  -0.01
   3   6     0.00   0.07   0.00    -0.01   0.01  -0.08     0.26  -0.10  -0.00
   4   6    -0.00  -0.12  -0.00    -0.01  -0.00   0.24     0.14   0.44   0.00
   5   6     0.00   0.12  -0.00    -0.01  -0.00  -0.24    -0.14  -0.44   0.00
   6   6    -0.00  -0.07   0.00    -0.01   0.01   0.08    -0.26   0.10  -0.00
   7   6     0.01   0.11  -0.01    -0.01  -0.00   0.16    -0.15   0.22  -0.01
   8   6     0.02   0.01  -0.06     0.01   0.00  -0.20     0.14  -0.19   0.01
   9   1     0.10   0.06   0.04     0.12  -0.11  -0.05    -0.14   0.03  -0.00
  10   1     0.02  -0.04   0.12     0.00  -0.00  -0.08     0.04  -0.06  -0.00
  11   1    -0.05   0.01  -0.01    -0.13   0.11  -0.03    -0.15   0.04   0.01
  12   1     0.00   0.21  -0.15     0.27  -0.08   0.02    -0.04  -0.07   0.00
  13   1     0.00   0.21   0.16    -0.26   0.07   0.03    -0.03  -0.06  -0.00
  14   1     0.01  -0.17   0.12     0.20  -0.03   0.01    -0.03  -0.03  -0.00
  15   1     0.00  -0.16  -0.12    -0.17   0.04   0.01    -0.01  -0.03  -0.00
  16   1    -0.01   0.25  -0.18     0.15   0.14  -0.04    -0.01   0.11   0.00
  17   1    -0.01   0.25   0.19    -0.11  -0.13  -0.04     0.02   0.11   0.00
  18   1     0.00  -0.25   0.19    -0.11  -0.14   0.04    -0.02  -0.11   0.00
  19   1     0.01  -0.25  -0.18     0.15   0.14   0.04     0.01  -0.11   0.00
  20   1     0.00   0.16  -0.12    -0.17   0.04  -0.01     0.01   0.03  -0.00
  21   1    -0.01   0.16   0.12     0.20  -0.03  -0.01     0.03   0.03  -0.00
  22   1    -0.00  -0.21   0.16    -0.26   0.07  -0.03     0.03   0.06  -0.00
  23   1    -0.01  -0.21  -0.15     0.27  -0.08  -0.02     0.04   0.07   0.00
  24   1    -0.13  -0.07   0.05     0.12  -0.11   0.05     0.14  -0.03  -0.00
  25   1    -0.03   0.04   0.18     0.00  -0.00   0.08    -0.04   0.06  -0.00
  26   1     0.09   0.01  -0.00    -0.13   0.11   0.03     0.15  -0.04   0.01
                     37                     38                     39
                        a                      a                      a 
 Frequencies --  1074.4215              1097.2616              1277.5276
 Red. masses --    99.0000                99.0000                99.0000
 Frc consts  --    99.0000                99.0000                99.0000
 IR Inten    --    99.0000                99.0000                99.0000
 Raman Activ --     0.0000                 0.0000                 0.0000
 Depolar     --     0.0000                 0.0000                 0.0000
 Atom AN      X      Y      Z        X      Y      Z        X      Y      Z
   1   6    -0.24   0.16   0.01    -0.09   0.27   0.01     0.00  -0.01   0.15
   2   6     0.27  -0.15  -0.01     0.19  -0.28  -0.01     0.01   0.01   0.01
   3   6     0.26  -0.22  -0.01    -0.09   0.21   0.00     0.01   0.01  -0.22
   4   6    -0.29   0.20   0.00     0.19  -0.15  -0.00     0.01  -0.01   0.09
   5   6    -0.28   0.20  -0.00     0.19  -0.15   0.00    -0.01   0.01   0.09
   6   6     0.26  -0.22   0.01    -0.09   0.20  -0.00    -0.01  -0.01  -0.22
   7   6     0.27  -0.15   0.01     0.19  -0.28   0.01    -0.01  -0.01   0.01
   8   6    -0.24   0.16  -0.01    -0.09   0.27  -0.01    -0.00   0.01   0.15
   9   1    -0.08   0.05   0.01    -0.20   0.04  -0.01     0.09  -0.08  -0.03
  10   1    -0.07   0.05   0.00     0.12  -0.12  -0.00    -0.00   0.00  -0.04
  11   1    -0.08   0.05  -0.00    -0.20   0.04   0.02    -0.09   0.08  -0.02
  12   1     0.09  -0.04   0.00     0.01  -0.07  -0.00     0.37   0.02  -0.01
  13   1     0.09  -0.05  -0.01     0.01  -0.07  -0.00    -0.39  -0.02   0.00
  14   1     0.09  -0.06   0.00    -0.17   0.04   0.00    -0.05  -0.12   0.03
  15   1     0.09  -0.06  -0.01    -0.18   0.04   0.00     0.01   0.12   0.03
  16   1    -0.08   0.06  -0.00    -0.04  -0.04   0.00    -0.18   0.04  -0.01
  17   1    -0.07   0.06   0.01    -0.05  -0.05  -0.00     0.16  -0.04  -0.02
  18   1    -0.07   0.06  -0.01    -0.05  -0.05   0.00    -0.16   0.04  -0.02
  19   1    -0.08   0.06   0.00    -0.04  -0.04  -0.00     0.18  -0.04  -0.01
  20   1     0.09  -0.06   0.01    -0.18   0.04  -0.00    -0.01  -0.12   0.03
  21   1     0.09  -0.06  -0.00    -0.17   0.04  -0.00     0.05   0.12   0.03
  22   1     0.09  -0.05   0.01     0.01  -0.07   0.00     0.39   0.02   0.00
  23   1     0.09  -0.04  -0.00     0.01  -0.07   0.01    -0.37  -0.02  -0.01
  24   1    -0.08   0.05  -0.01    -0.20   0.04   0.01    -0.09   0.07  -0.03
  25   1    -0.07   0.05  -0.00     0.12  -0.12   0.00     0.00  -0.01  -0.04
  26   1    -0.08   0.05   0.00    -0.20   0.04  -0.02     0.09  -0.08  -0.02
                     40                     41                     42
                        a                      a                      a 
 Frequencies --  1122.7573              1105.1470              1108.7577
 Red. masses --    99.0000                99.0000                99.0000
 Frc consts  --    99.0000                99.0000                99.0000
 IR Inten    --    99.0000                99.0000                99.0000
 Raman Activ --     0.0000                 0.0000                 0.0000
 Depolar     --     0.0000                 0.0000                 0.0000
 Atom AN      X      Y      Z        X      Y      Z        X      Y      Z
   1   6    -0.14  -0.00   0.00     0.15  -0.15  -0.01    -0.17   0.14   0.01
   2   6     0.27   0.20  -0.00    -0.29   0.02   0.01     0.25  -0.10  -0.00
   3   6    -0.34  -0.16   0.00     0.31  -0.06  -0.00     0.05  -0.15  -0.01
   4   6     0.07  -0.08  -0.00    -0.22   0.12   0.00    -0.42  -0.18   0.00
   5   6     0.07  -0.08   0.00     0.22  -0.12   0.00     0.42   0.18   0.00
   6   6    -0.34  -0.16  -0.00    -0.31   0.06  -0.00    -0.05   0.15  -0.01
   7   6     0.27   0.20   0.00     0.29  -0.02   0.01    -0.25   0.10  -0.00
   8   6    -0.14  -0.00  -0.00    -0.15   0.15  -0.01     0.17  -0.14   0.01
   9   1     0.06   0.03   0.01     0.07  -0.04  -0.00    -0.07   0.04   0.00
  10   1    -0.12   0.11   0.00     0.02  -0.02  -0.00    -0.03   0.02   0.00
  11   1     0.05   0.03  -0.01     0.07  -0.04  -0.00    -0.07   0.04   0.00
  12   1     0.24   0.06  -0.00    -0.18  -0.00   0.01     0.11  -0.03  -0.00
  13   1     0.24   0.06  -0.00    -0.18  -0.00   0.00     0.11  -0.03  -0.00
  14   1    -0.10  -0.04   0.00     0.18  -0.01  -0.00     0.05  -0.05   0.01
  15   1    -0.10  -0.05  -0.00     0.18  -0.01   0.00     0.05  -0.05  -0.01
  16   1     0.13  -0.02   0.00    -0.16   0.03   0.00    -0.21  -0.06   0.00
  17   1     0.13  -0.03  -0.01    -0.16   0.03   0.00    -0.21  -0.06  -0.00
  18   1     0.13  -0.03   0.01     0.16  -0.03   0.00     0.21   0.06  -0.00
  19   1     0.13  -0.02  -0.00     0.16  -0.03   0.00     0.21   0.06   0.01
  20   1    -0.10  -0.05   0.00    -0.18   0.01   0.00    -0.05   0.05  -0.01
  21   1    -0.10  -0.04  -0.00    -0.18   0.01  -0.00    -0.05   0.05   0.01
  22   1     0.24   0.06   0.00     0.18   0.00   0.00    -0.11   0.03  -0.00
  23   1     0.24   0.06   0.00     0.18   0.00   0.01    -0.11   0.03  -0.00
  24   1     0.06   0.03  -0.01    -0.07   0.04  -0.00     0.07  -0.04   0.00
  25   1    -0.12   0.11  -0.00    -0.02   0.02  -0.00     0.03  -0.02   0.00
  26   1     0.05   0.03   0.01    -0.07   0.04  -0.00     0.07  -0.04   0.00
                     43                     44                     45
                        a                      a                      a 
 Frequencies --  1145.8065              1274.3046              1295.7001
 Red. masses --    99.0000                99.0000                99.0000
 Frc consts  --    99.0000                99.0000                99.0000
 IR Inten    --    99.0000                99.0000                99.0000
 Raman Activ --     0.0000                 0.0000                 0.0000
 Depolar     --     0.0000                 0.0000                 0.0000
 Atom AN      X      Y      Z        X      Y      Z        X      Y      Z
   1   6     0.07   0.16   0.00    -0.00   0.00  -0.01    -0.00   0.00  -0.08
   2   6    -0.09  -0.32  -0.00    -0.00   0.00  -0.11     0.00   0.00  -0.06
   3   6     0.07   0.35   0.00    -0.00   0.00  -0.02     0.01  -0.00   0.17
   4   6     0.03  -0.28  -0.00    -0.00  -0.00   0.04    -0.01   0.00   0.14
   5   6    -0.03   0.28  -0.00    -0.00  -0.00  -0.04    -0.00   0.00  -0.14
   6   6    -0.07  -0.35   0.00    -0.00   0.00   0.02     0.01  -0.00  -0.17
   7   6     0.09   0.32  -0.00    -0.00  -0.00   0.11     0.00   0.00   0.05
   8   6    -0.07  -0.16   0.00     0.00   0.00   0.01    -0.00   0.00   0.08
   9   1    -0.15   0.00  -0.01    -0.01   0.00  -0.00    -0.05   0.04   0.01
  10   1     0.15  -0.14  -0.01     0.00  -0.00  -0.02    -0.00   0.00   0.02
  11   1    -0.15  -0.00   0.02     0.01  -0.00  -0.00     0.05  -0.04   0.01
  12   1    -0.12  -0.08  -0.00    -0.17  -0.06   0.01    -0.28  -0.04   0.01
  13   1    -0.12  -0.08   0.00     0.17   0.06   0.01     0.27   0.04   0.01
  14   1     0.01   0.08   0.00     0.35   0.00  -0.00     0.12   0.09  -0.02
  15   1     0.01   0.09  -0.00    -0.35  -0.00   0.00    -0.12  -0.09  -0.02
  16   1    -0.01  -0.06  -0.01    -0.29   0.01  -0.00     0.33   0.08  -0.02
  17   1    -0.01  -0.06   0.00     0.30  -0.01  -0.01    -0.33  -0.08  -0.01
  18   1     0.01   0.06   0.00     0.30  -0.01   0.01    -0.33  -0.08   0.01
  19   1     0.01   0.06  -0.01    -0.29   0.01   0.00     0.33   0.08   0.02
  20   1    -0.01  -0.09  -0.00    -0.35  -0.00  -0.00    -0.12  -0.09   0.02
  21   1    -0.01  -0.08   0.00     0.36   0.01   0.00     0.11   0.09   0.02
  22   1     0.12   0.08   0.00     0.17   0.06  -0.01     0.27   0.04  -0.01
  23   1     0.12   0.08  -0.00    -0.17  -0.06  -0.01    -0.28  -0.04  -0.01
  24   1     0.15  -0.00  -0.01    -0.01   0.00   0.00    -0.05   0.04  -0.01
  25   1    -0.15   0.14  -0.01     0.00  -0.00   0.02    -0.00   0.00  -0.02
  26   1     0.15   0.00   0.02     0.01  -0.00   0.00     0.05  -0.04  -0.01
                     46                     47                     48
                        a                      a                      a 
 Frequencies --  1239.6422              1292.7691              1285.0850
 Red. masses --    99.0000                99.0000                99.0000
 Frc consts  --    99.0000                99.0000                99.0000
 IR Inten    --    99.0000                99.0000                99.0000
 Raman Activ --     0.0000                 0.0000                 0.0000
 Depolar     --     0.0000                 0.0000                 0.0000
 Atom AN      X      Y      Z        X      Y      Z        X      Y      Z
   1   6     0.04   0.11  -0.01    -0.00  -0.01  -0.01     0.04   0.11   0.01
   2   6    -0.09  -0.16   0.01     0.02   0.01   0.11    -0.17  -0.10   0.02
   3   6    -0.14   0.12   0.00     0.02   0.00   0.06    -0.20  -0.02  -0.01
   4   6    -0.18  -0.05  -0.01     0.01  -0.01  -0.17    -0.09   0.12  -0.01
   5   6    -0.18  -0.05   0.01    -0.00   0.01  -0.17     0.09  -0.12  -0.01
   6   6    -0.14   0.12  -0.00    -0.02  -0.00   0.05     0.20   0.02  -0.00
   7   6    -0.09  -0.16  -0.02    -0.02  -0.01   0.11     0.17   0.10   0.02
   8   6     0.04   0.11   0.01     0.00   0.01  -0.00    -0.04  -0.11   0.01
   9   1    -0.08   0.01  -0.01     0.00   0.01   0.01    -0.04  -0.02  -0.02
  10   1     0.08  -0.08   0.00    -0.01   0.01   0.02     0.10  -0.09  -0.00
  11   1    -0.06  -0.01   0.02     0.00  -0.00   0.00    -0.05  -0.01   0.02
  12   1     0.08  -0.02  -0.01     0.09   0.06  -0.01     0.26  -0.00  -0.01
  13   1     0.11  -0.04  -0.00    -0.15  -0.06  -0.01     0.19  -0.02  -0.00
  14   1     0.24   0.03   0.00    -0.41   0.01  -0.00     0.28   0.01  -0.00
  15   1     0.27   0.03  -0.00     0.34  -0.02  -0.01     0.37   0.02   0.00
  16   1     0.32  -0.00  -0.00     0.23  -0.08   0.01     0.16   0.01   0.01
  17   1     0.33   0.01   0.00    -0.26   0.07   0.02     0.13   0.03  -0.01
  18   1     0.33   0.01  -0.00     0.25  -0.07   0.02    -0.13  -0.03  -0.01
  19   1     0.32  -0.00   0.00    -0.23   0.08   0.01    -0.17  -0.02   0.01
  20   1     0.27   0.03   0.00    -0.34   0.01  -0.01    -0.37  -0.02   0.00
  21   1     0.24   0.03  -0.00     0.41  -0.01  -0.00    -0.28  -0.01  -0.00
  22   1     0.11  -0.04   0.00     0.15   0.06  -0.01    -0.19   0.02  -0.00
  23   1     0.08  -0.02   0.01    -0.10  -0.06  -0.01    -0.26  -0.00  -0.01
  24   1    -0.08   0.01   0.01    -0.01  -0.01   0.01     0.04   0.02  -0.02
  25   1     0.08  -0.08  -0.00     0.01  -0.01   0.02    -0.10   0.09  -0.00
  26   1    -0.06  -0.01  -0.02    -0.00   0.00   0.00     0.04   0.01   0.02
                     49                     50                     51
                        a                      a                      a 
 Frequencies --  1326.9171              1359.8259              1377.2434
 Red. masses --    99.0000                99.0000                99.0000
 Frc consts  --    99.0000                99.0000                99.0000
 IR Inten    --    99.0000                99.0000                99.0000
 Raman Activ --     0.0000                 0.0000                 0.0000
 Depolar     --     0.0000                 0.0000                 0.0000
 Atom AN      X      Y      Z        X      Y      Z        X      Y      Z
   1   6     0.03   0.10   0.00     0.03   0.07   0.00    -0.03  -0.04   0.00
   2   6    -0.26  -0.04   0.00    -0.30   0.01   0.01     0.26  -0.02  -0.01
   3   6    -0.10  -0.09   0.00     0.14  -0.05  -0.00    -0.32  -0.01   0.00
   4   6     0.18   0.07  -0.00     0.21  -0.04  -0.00     0.14   0.04  -0.00
   5   6     0.18   0.07   0.00    -0.21   0.04  -0.00     0.14   0.04   0.00
   6   6    -0.10  -0.09  -0.00    -0.14   0.05  -0.00    -0.32  -0.01  -0.00
   7   6    -0.26  -0.04  -0.00     0.30  -0.01   0.01     0.26  -0.02   0.01
   8   6     0.03   0.09  -0.00    -0.03  -0.07   0.00    -0.03  -0.04   0.00
   9   1    -0.01  -0.03  -0.03     0.02  -0.03  -0.04    -0.00   0.03   0.02
  10   1     0.10  -0.09  -0.00     0.08  -0.08  -0.00    -0.04   0.04   0.00
  11   1    -0.00  -0.03   0.03     0.02  -0.04   0.03    -0.00   0.03  -0.02
  12   1     0.30   0.00  -0.01     0.29   0.00   0.00    -0.22   0.00  -0.01
  13   1     0.31   0.00  -0.01     0.30  -0.00  -0.01    -0.22   0.00   0.02
  14   1     0.15   0.01  -0.02    -0.15   0.01  -0.02     0.29   0.01   0.00
  15   1     0.15   0.01   0.01    -0.14   0.00   0.02     0.29   0.01  -0.01
  16   1    -0.24  -0.01   0.01    -0.23  -0.00  -0.01    -0.13  -0.02   0.02
  17   1    -0.25  -0.01  -0.01    -0.24  -0.00   0.01    -0.13  -0.01  -0.01
  18   1    -0.25  -0.01   0.01     0.24   0.00   0.01    -0.14  -0.01   0.01
  19   1    -0.24  -0.01  -0.01     0.23   0.00  -0.01    -0.13  -0.02  -0.02
  20   1     0.15   0.01  -0.01     0.14  -0.00   0.02     0.29   0.01   0.01
  21   1     0.15   0.01   0.02     0.15  -0.01  -0.02     0.29   0.01  -0.00
  22   1     0.31   0.00   0.01    -0.30  -0.00  -0.01    -0.22   0.00  -0.02
  23   1     0.30   0.00   0.01    -0.29  -0.00   0.00    -0.22   0.00   0.01
  24   1    -0.01  -0.03   0.03    -0.02   0.03  -0.04    -0.00   0.03  -0.03
  25   1     0.10  -0.09   0.00    -0.08   0.08  -0.00    -0.04   0.04  -0.00
  26   1    -0.00  -0.03  -0.03    -0.02   0.04   0.03    -0.00   0.03   0.02
                     52                     53                     54
                        a                      a                      a 
 Frequencies --  1379.0830              1415.9512              1416.0412
 Red. masses --    99.0000                99.0000                99.0000
 Frc consts  --    99.0000                99.0000                99.0000
 IR Inten    --    99.0000                99.0000                99.0000
 Raman Activ --     0.0000                 0.0000                 0.0000
 Depolar     --     0.0000                 0.0000                 0.0000
 Atom AN      X      Y      Z        X      Y      Z        X      Y      Z
   1   6     0.03   0.00  -0.00    -0.27   0.15   0.01    -0.27   0.15   0.01
   2   6    -0.15   0.01   0.00     0.06   0.01  -0.00     0.06   0.01  -0.00
   3   6     0.27   0.02  -0.00    -0.00   0.01   0.00     0.00   0.02   0.00
   4   6    -0.35  -0.01   0.00    -0.01  -0.01  -0.00    -0.03  -0.01   0.00
   5   6     0.35   0.01   0.00    -0.01  -0.01   0.00     0.03   0.01   0.00
   6   6    -0.27  -0.02  -0.00    -0.00   0.01  -0.00    -0.00  -0.02   0.00
   7   6     0.15  -0.01   0.00     0.06   0.01   0.00    -0.06  -0.01  -0.00
   8   6    -0.03  -0.00  -0.00    -0.27   0.15  -0.01     0.27  -0.15   0.01
   9   1    -0.02  -0.01  -0.01     0.33  -0.10  -0.11     0.33  -0.10  -0.11
  10   1     0.01   0.00   0.00     0.21  -0.29  -0.01     0.21  -0.29  -0.01
  11   1    -0.02  -0.01   0.01     0.33  -0.11   0.10     0.33  -0.11   0.10
  12   1     0.11  -0.00   0.01    -0.06  -0.03   0.02    -0.06  -0.03   0.02
  13   1     0.11  -0.00  -0.01    -0.06  -0.03  -0.02    -0.06  -0.03  -0.02
  14   1    -0.22  -0.01   0.01    -0.01   0.01  -0.00    -0.01   0.01   0.00
  15   1    -0.21  -0.01  -0.00    -0.01   0.01   0.00    -0.01   0.01   0.00
  16   1     0.28   0.01  -0.00     0.02   0.00  -0.00     0.03   0.00  -0.00
  17   1     0.29   0.01  -0.00     0.02   0.00   0.00     0.03   0.00  -0.00
  18   1    -0.29  -0.01  -0.01     0.02   0.00  -0.00    -0.03  -0.00  -0.00
  19   1    -0.28  -0.01  -0.00     0.02   0.00   0.00    -0.03  -0.00  -0.00
  20   1     0.21   0.01  -0.00    -0.01   0.01  -0.00     0.01  -0.01   0.00
  21   1     0.21   0.01   0.01    -0.00   0.01   0.00     0.01  -0.01   0.00
  22   1    -0.11   0.00  -0.01    -0.06  -0.03   0.02     0.06   0.03  -0.02
  23   1    -0.11   0.00   0.01    -0.06  -0.03  -0.02     0.06   0.03   0.02
  24   1     0.02   0.01  -0.01     0.33  -0.10   0.11    -0.33   0.10  -0.11
  25   1    -0.01  -0.00   0.00     0.21  -0.29   0.01    -0.21   0.29  -0.01
  26   1     0.02   0.01   0.01     0.33  -0.11  -0.10    -0.33   0.11   0.10
                     55                     56                     57
                        a                      a                      a 
 Frequencies --  2955.7296              2953.4477              2959.5697
 Red. masses --    99.0000                99.0000                99.0000
 Frc consts  --    99.0000                99.0000                99.0000
 IR Inten    --    99.0000                99.0000                99.0000
 Raman Activ --     0.0000                 0.0000                 0.0000
 Depolar     --     0.0000                 0.0000                 0.0000
 Atom AN      X      Y      Z        X      Y      Z        X      Y      Z
   1   6     0.00   0.00  -0.00     0.00   0.00  -0.00    -0.00   0.00  -0.01
   2   6     0.00  -0.00   0.09     0.00  -0.00   0.03     0.00  -0.00   0.14
   3   6    -0.00   0.00  -0.16    -0.00   0.00  -0.10    -0.00   0.00  -0.12
   4   6     0.00  -0.00   0.09     0.00  -0.00   0.17    -0.00   0.00  -0.10
   5   6    -0.00   0.00   0.09     0.00  -0.00  -0.17    -0.00   0.00   0.10
   6   6     0.00  -0.00  -0.16    -0.00   0.00   0.10    -0.00   0.00   0.12
   7   6    -0.00   0.00   0.09     0.00  -0.00  -0.03     0.00  -0.00  -0.14
   8   6     0.00  -0.00  -0.00     0.00   0.00   0.00    -0.00   0.00   0.01
   9   1     0.00  -0.01   0.01     0.00  -0.00   0.00     0.00  -0.02   0.02
  10   1    -0.00  -0.00  -0.00    -0.00  -0.00  -0.00    -0.00  -0.00  -0.00
  11   1    -0.00   0.01   0.01    -0.00   0.00   0.00    -0.00   0.02   0.02
  12   1     0.00  -0.12  -0.17    -0.00  -0.05  -0.07     0.00  -0.19  -0.26
  13   1    -0.01   0.13  -0.16    -0.00   0.05  -0.06    -0.01   0.20  -0.25
  14   1    -0.01   0.23   0.31    -0.01   0.15   0.20    -0.00   0.16   0.22
  15   1     0.01  -0.23   0.29     0.01  -0.16   0.19     0.01  -0.16   0.21
  16   1     0.01  -0.12  -0.16     0.01  -0.24  -0.32    -0.00   0.14   0.18
  17   1    -0.01   0.13  -0.17    -0.01   0.25  -0.32     0.01  -0.14   0.19
  18   1     0.01  -0.13  -0.17    -0.01   0.25   0.32     0.01  -0.14  -0.19
  19   1    -0.01   0.12  -0.16     0.01  -0.24   0.32    -0.00   0.14  -0.18
  20   1    -0.01   0.23   0.29     0.01  -0.16  -0.19     0.01  -0.16  -0.21
  21   1     0.01  -0.23   0.31    -0.01   0.15  -0.20    -0.00   0.16  -0.22
  22   1     0.01  -0.13  -0.16    -0.00   0.05   0.06    -0.01   0.20   0.25
  23   1    -0.00   0.12  -0.17    -0.00  -0.05   0.07     0.00  -0.19   0.26
  24   1    -0.00   0.01   0.01     0.00  -0.00  -0.00     0.00  -0.02  -0.02
  25   1     0.00   0.00  -0.00    -0.00  -0.00   0.00    -0.00   0.00   0.00
  26   1     0.00  -0.01   0.01    -0.00   0.00  -0.00    -0.00   0.02  -0.02
                     58                     59                     60
                        a                      a                      a 
 Frequencies --  2965.2454              2972.4445              3030.0223
 Red. masses --    99.0000                99.0000                99.0000
 Frc consts  --    99.0000                99.0000                99.0000
 IR Inten    --    99.0000                99.0000                99.0000
 Raman Activ --     0.0000                 0.0000                 0.0000
 Depolar     --     0.0000                 0.0000                 0.0000
 Atom AN      X      Y      Z        X      Y      Z        X      Y      Z
   1   6     0.00  -0.00   0.02     0.00   0.00   0.02     0.01   0.00   0.21
   2   6    -0.00   0.01  -0.16    -0.00   0.01  -0.15     0.00   0.00   0.03
   3   6    -0.00  -0.00  -0.02    -0.00  -0.03  -0.14     0.00   0.00   0.01
   4   6     0.00  -0.01   0.13    -0.00   0.02  -0.05     0.00   0.00   0.00
   5   6    -0.00   0.01   0.13    -0.00   0.02   0.05     0.00   0.00  -0.00
   6   6     0.00   0.00  -0.02    -0.00  -0.03   0.14     0.00   0.00  -0.01
   7   6     0.00  -0.01  -0.16    -0.00   0.01   0.15     0.00  -0.00  -0.03
   8   6    -0.00   0.00   0.02     0.00   0.00  -0.02     0.01  -0.00  -0.20
   9   1    -0.00   0.03  -0.03    -0.00   0.03  -0.04    -0.02   0.29  -0.36
  10   1     0.00   0.00   0.00    -0.00  -0.00   0.00    -0.01  -0.01   0.03
  11   1     0.00  -0.03  -0.04     0.00  -0.03  -0.05     0.01  -0.29  -0.41
  12   1    -0.00   0.21   0.29    -0.00   0.17   0.24    -0.00  -0.04  -0.05
  13   1     0.02  -0.24   0.30     0.01  -0.23   0.29    -0.00   0.04  -0.05
  14   1    -0.00   0.03   0.04    -0.01   0.23   0.33    -0.00  -0.01  -0.02
  15   1     0.00  -0.02   0.03     0.01  -0.12   0.15     0.00   0.01  -0.01
  16   1     0.00  -0.16  -0.21    -0.00   0.04   0.04     0.00  -0.00  -0.00
  17   1    -0.01   0.19  -0.25     0.01  -0.10   0.14    -0.00   0.00  -0.00
  18   1     0.01  -0.19  -0.25     0.01  -0.10  -0.14    -0.00   0.00   0.00
  19   1    -0.00   0.16  -0.21    -0.00   0.04  -0.04     0.00  -0.00   0.00
  20   1    -0.00   0.02   0.03     0.01  -0.12  -0.15     0.00   0.01   0.01
  21   1     0.00  -0.03   0.04    -0.01   0.23  -0.32    -0.00  -0.01   0.01
  22   1    -0.01   0.24   0.30     0.01  -0.23  -0.28    -0.00   0.03   0.04
  23   1     0.00  -0.21   0.29    -0.00   0.17  -0.24    -0.00  -0.03   0.05
  24   1     0.00  -0.03  -0.03    -0.00   0.03   0.04    -0.02   0.28   0.34
  25   1    -0.00   0.00   0.00    -0.00  -0.00  -0.00    -0.01  -0.01  -0.03
  26   1    -0.00   0.03  -0.04     0.00  -0.03   0.05     0.01  -0.27   0.39
                     61                     62                     63
                        a                      a                      a 
 Frequencies --  3030.2103              2973.3734              2973.3275
 Red. masses --    99.0000                99.0000                99.0000
 Frc consts  --    99.0000                99.0000                99.0000
 IR Inten    --    99.0000                99.0000                99.0000
 Raman Activ --     0.0000                 0.0000                 0.0000
 Depolar     --     0.0000                 0.0000                 0.0000
 Atom AN      X      Y      Z        X      Y      Z        X      Y      Z
   1   6    -0.01  -0.00  -0.20     0.00   0.01  -0.01    -0.00  -0.00  -0.00
   2   6    -0.00  -0.00  -0.03    -0.00   0.01   0.04    -0.00   0.06   0.02
   3   6    -0.00  -0.00  -0.01     0.00  -0.11   0.03     0.00  -0.04   0.01
   4   6    -0.00  -0.00  -0.01    -0.00   0.09   0.02     0.01  -0.12  -0.00
   5   6     0.00  -0.00  -0.01    -0.00   0.08  -0.02    -0.01   0.13  -0.01
   6   6     0.00   0.00  -0.01     0.00  -0.11  -0.03    -0.00   0.03   0.01
   7   6     0.00  -0.00  -0.03    -0.00   0.01  -0.04     0.00  -0.06   0.01
   8   6     0.01  -0.00  -0.21     0.00   0.01   0.01     0.00   0.00  -0.00
   9   1     0.02  -0.28   0.34     0.00  -0.01   0.02    -0.00   0.00  -0.01
  10   1     0.01   0.01  -0.03    -0.01  -0.01  -0.00     0.01   0.01  -0.00
  11   1    -0.01   0.28   0.39    -0.00   0.00   0.00    -0.00   0.01   0.01
  12   1     0.00   0.04   0.05    -0.00  -0.07  -0.10     0.00  -0.12  -0.20
  13   1     0.00  -0.03   0.04    -0.00   0.02  -0.02     0.01  -0.10   0.14
  14   1     0.00   0.01   0.02    -0.00   0.15   0.25     0.00   0.05   0.08
  15   1    -0.00  -0.01   0.02    -0.01   0.26  -0.37    -0.00   0.08  -0.11
  16   1    -0.00   0.01   0.01     0.01  -0.18  -0.28    -0.00   0.23   0.36
  17   1     0.00  -0.01   0.01     0.01  -0.14   0.22    -0.01   0.23  -0.35
  18   1    -0.00   0.01   0.01     0.01  -0.13  -0.20     0.01  -0.24  -0.36
  19   1     0.00  -0.01   0.01     0.01  -0.17   0.26     0.00  -0.24   0.38
  20   1     0.00   0.01   0.02    -0.01   0.26   0.38     0.00  -0.06  -0.09
  21   1    -0.00  -0.01   0.02    -0.00   0.16  -0.26    -0.00  -0.04   0.06
  22   1    -0.00   0.04   0.05    -0.00   0.02   0.02    -0.01   0.10   0.14
  23   1    -0.00  -0.04   0.05    -0.00  -0.08   0.11    -0.00   0.12  -0.19
  24   1    -0.02   0.30   0.36     0.00  -0.02  -0.02     0.00  -0.00  -0.01
  25   1    -0.01  -0.01  -0.03    -0.01  -0.00   0.00    -0.01  -0.01  -0.00
  26   1     0.01  -0.29   0.41    -0.00   0.00  -0.00     0.00  -0.01   0.01
                     64                     65                     66
                        a                      a                      a 
 Frequencies --  2978.1436              2976.9770              3032.3996
 Red. masses --    99.0000                99.0000                99.0000
 Frc consts  --    99.0000                99.0000                99.0000
 IR Inten    --    99.0000                99.0000                99.0000
 Raman Activ --     0.0000                 0.0000                 0.0000
 Depolar     --     0.0000                 0.0000                 0.0000
 Atom AN      X      Y      Z        X      Y      Z        X      Y      Z
   1   6    -0.01  -0.01  -0.00     0.00  -0.01  -0.00     0.09   0.18  -0.01
   2   6    -0.00   0.12   0.01     0.00  -0.05   0.01     0.00   0.02  -0.00
   3   6     0.00  -0.03   0.01    -0.00   0.12   0.02     0.00   0.01  -0.00
   4   6     0.00  -0.07   0.00     0.00  -0.05   0.02    -0.00   0.00  -0.00
   5   6     0.00  -0.07  -0.00    -0.00   0.05   0.02     0.00  -0.00   0.00
   6   6     0.00  -0.03  -0.01     0.00  -0.12   0.02    -0.00  -0.01   0.00
   7   6    -0.00   0.12  -0.01    -0.00   0.05   0.01    -0.00  -0.02  -0.00
   8   6    -0.01  -0.01   0.00    -0.00   0.01  -0.00    -0.09  -0.18  -0.00
   9   1    -0.00   0.01  -0.02     0.00   0.00  -0.00     0.03  -0.20   0.30
  10   1     0.02   0.02  -0.00    -0.00  -0.00  -0.00    -0.37  -0.28  -0.00
  11   1    -0.00   0.02   0.03     0.00   0.01   0.01     0.02  -0.15  -0.27
  12   1     0.00  -0.23  -0.37     0.00   0.07   0.12    -0.00  -0.03  -0.04
  13   1     0.01  -0.22   0.33    -0.01   0.11  -0.15     0.00  -0.03   0.05
  14   1    -0.00   0.05   0.08     0.01  -0.24  -0.38    -0.00  -0.02  -0.03
  15   1    -0.00   0.07  -0.10     0.01  -0.22   0.32    -0.00  -0.02   0.03
  16   1    -0.00   0.12   0.19    -0.00   0.07   0.11     0.00  -0.00  -0.00
  17   1    -0.01   0.13  -0.19    -0.01   0.12  -0.18     0.00  -0.00   0.00
  18   1    -0.01   0.13   0.19     0.01  -0.12  -0.18    -0.00   0.00   0.00
  19   1    -0.00   0.12  -0.19     0.00  -0.07   0.11    -0.00   0.00  -0.00
  20   1    -0.00   0.07   0.10    -0.01   0.22   0.32     0.00   0.02   0.03
  21   1    -0.00   0.05  -0.08    -0.01   0.25  -0.39     0.00   0.02  -0.03
  22   1     0.01  -0.23  -0.33     0.01  -0.11  -0.16    -0.00   0.03   0.05
  23   1     0.00  -0.23   0.37    -0.00  -0.07   0.12     0.00   0.03  -0.05
  24   1    -0.00   0.01   0.02    -0.00  -0.00  -0.00    -0.03   0.20   0.30
  25   1     0.02   0.02  -0.00     0.00   0.00  -0.00     0.38   0.28  -0.01
  26   1    -0.00   0.02  -0.03    -0.00  -0.01   0.01    -0.02   0.16  -0.28
                     67                     68                     69
                        a                      a                      a 
 Frequencies --  3032.5907              2983.7265              2979.5295
 Red. masses --    99.0000                99.0000                99.0000
 Frc consts  --    99.0000                99.0000                99.0000
 IR Inten    --    99.0000                99.0000                99.0000
 Raman Activ --     0.0000                 0.0000                 0.0000
 Depolar     --     0.0000                 0.0000                 0.0000
 Atom AN      X      Y      Z        X      Y      Z        X      Y      Z
   1   6     0.10   0.18  -0.01     0.01   0.02   0.00    -0.00  -0.00   0.02
   2   6     0.00   0.02  -0.00     0.00  -0.12  -0.01    -0.00   0.01  -0.09
   3   6    -0.00   0.01  -0.00     0.00  -0.07  -0.01    -0.00   0.02  -0.13
   4   6    -0.00   0.01  -0.00     0.00  -0.04  -0.01    -0.00  -0.01  -0.14
   5   6    -0.00   0.01  -0.00    -0.00   0.04  -0.01     0.00   0.01  -0.14
   6   6    -0.00   0.01  -0.00    -0.00   0.07  -0.01     0.00  -0.02  -0.13
   7   6     0.00   0.02   0.00    -0.00   0.12  -0.01     0.00  -0.01  -0.09
   8   6     0.09   0.18   0.00    -0.01  -0.02   0.00     0.00   0.00   0.02
   9   1     0.03  -0.19   0.30     0.00  -0.03   0.04    -0.00   0.03  -0.04
  10   1    -0.39  -0.29  -0.00    -0.04  -0.03   0.00     0.00   0.00   0.00
  11   1     0.02  -0.15  -0.27     0.00  -0.03  -0.05     0.00  -0.03  -0.04
  12   1    -0.00  -0.03  -0.05    -0.00   0.22   0.36    -0.00   0.11   0.16
  13   1     0.00  -0.03   0.05    -0.01   0.22  -0.33     0.01  -0.14   0.17
  14   1    -0.00  -0.02  -0.03    -0.00   0.12   0.19    -0.00   0.13   0.17
  15   1    -0.00  -0.02   0.03    -0.01   0.11  -0.17     0.01  -0.21   0.27
  16   1     0.00  -0.01  -0.02    -0.00   0.09   0.14    -0.00   0.20   0.28
  17   1     0.00  -0.01   0.02    -0.00   0.07  -0.10     0.01  -0.17   0.22
  18   1     0.00  -0.01  -0.01     0.00  -0.07  -0.10    -0.01   0.18   0.22
  19   1     0.00  -0.01   0.02     0.00  -0.09   0.14     0.00  -0.20   0.28
  20   1    -0.00  -0.02  -0.03     0.01  -0.11  -0.17    -0.01   0.21   0.27
  21   1    -0.00  -0.02   0.03     0.00  -0.12   0.19     0.00  -0.13   0.18
  22   1     0.00  -0.03  -0.05     0.01  -0.22  -0.33    -0.01   0.14   0.17
  23   1    -0.00  -0.03   0.05     0.00  -0.22   0.36     0.00  -0.11   0.16
  24   1     0.03  -0.19  -0.29    -0.00   0.03   0.04     0.00  -0.03  -0.04
  25   1    -0.38  -0.29   0.01     0.04   0.03  -0.00    -0.00  -0.00   0.00
  26   1     0.02  -0.15   0.27    -0.00   0.03  -0.04    -0.00   0.03  -0.04
                     70                     71                     72
                        a                      a                      a 
 Frequencies --  2990.2368              3037.7077              3038.1088
 Red. masses --    99.0000                99.0000                99.0000
 Frc consts  --    99.0000                99.0000                99.0000
 IR Inten    --    99.0000                99.0000                99.0000
 Raman Activ --     0.0000                 0.0000                 0.0000
 Depolar     --     0.0000                 0.0000                 0.0000
 Atom AN      X      Y      Z        X      Y      Z        X      Y      Z
   1   6     0.01   0.02   0.00    -0.10   0.03   0.00     0.11  -0.02  -0.00
   2   6     0.00  -0.07  -0.00    -0.00   0.00  -0.00     0.00  -0.00   0.00
   3   6     0.00  -0.09  -0.00     0.00   0.00  -0.00    -0.00  -0.00   0.00
   4   6     0.00  -0.10  -0.00    -0.00   0.00  -0.00     0.00   0.00   0.00
   5   6     0.00  -0.10   0.00    -0.00   0.00  -0.00    -0.00  -0.00   0.00
   6   6     0.00  -0.09   0.00     0.00   0.00  -0.00     0.00   0.00   0.00
   7   6     0.00  -0.07   0.00    -0.00   0.00   0.00    -0.00   0.00   0.00
   8   6     0.01   0.02  -0.00    -0.10   0.03  -0.00    -0.11   0.02  -0.00
   9   1     0.00  -0.03   0.04     0.00  -0.22   0.29    -0.00   0.21  -0.28
  10   1    -0.04  -0.03  -0.00     0.37   0.31   0.00    -0.38  -0.31  -0.00
  11   1     0.00  -0.03  -0.04    -0.01  -0.19  -0.29     0.01   0.19   0.29
  12   1    -0.00   0.13   0.20    -0.00  -0.00  -0.01     0.00   0.00   0.00
  13   1    -0.01   0.13  -0.20    -0.00  -0.00   0.01     0.00   0.00  -0.00
  14   1    -0.00   0.14   0.23    -0.00  -0.00  -0.01     0.00   0.00   0.01
  15   1    -0.01   0.15  -0.23     0.00  -0.00   0.01    -0.00   0.01  -0.01
  16   1    -0.00   0.17   0.27     0.00  -0.00  -0.00    -0.00  -0.00  -0.00
  17   1    -0.01   0.18  -0.27     0.00  -0.00   0.00    -0.00  -0.00   0.00
  18   1    -0.01   0.18   0.27     0.00  -0.00  -0.00     0.00   0.00   0.00
  19   1    -0.00   0.17  -0.27     0.00  -0.00   0.00     0.00   0.00  -0.00
  20   1    -0.01   0.15   0.23     0.00  -0.00  -0.01     0.00  -0.01  -0.01
  21   1    -0.00   0.14  -0.23    -0.00  -0.00   0.01    -0.00  -0.00   0.01
  22   1    -0.01   0.14   0.20    -0.00  -0.00  -0.01    -0.00  -0.00  -0.00
  23   1    -0.00   0.12  -0.20    -0.00  -0.00   0.01    -0.00  -0.00   0.00
  24   1     0.00  -0.03  -0.04     0.00  -0.22  -0.29     0.00  -0.21  -0.28
  25   1    -0.04  -0.03   0.00     0.37   0.31  -0.01     0.38   0.31  -0.01
  26   1     0.00  -0.03   0.04    -0.01  -0.19   0.30    -0.01  -0.19   0.29
