      -----------------------------------------------------------      
     |                   =====================                   |     
     |                           x T B                           |     
     |                   =====================                   |     
     |                         S. Grimme                         |     
     |          Mulliken Center for Theoretical Chemistry        |     
     |                    University of Bonn                     |     
      -----------------------------------------------------------      

   * xtb version 6.6.1 (8d0f1dd) compiled by 'stahn@M-Bot' on 2023-08-01

   xtb is free software: you can redistribute it and/or modify it under
   the terms of the GNU Lesser General Public License as published by
   the Free Software Foundation, either version 3 of the License, or
   (at your option) any later version.
   
   xtb is distributed in the hope that it will be useful,
   but WITHOUT ANY WARRANTY; without even the implied warranty of
   MERCHANTABILITY or FITNESS FOR A PARTICULAR PURPOSE.  See the
   GNU Lesser General Public License for more details.
   
   Cite this work as:
   * C. Bannwarth, E. Caldeweyher, S. Ehlert, A. Hansen, P. Pracht,
     J. Seibert, S. Spicher, S. Grimme, WIREs Comput. Mol. Sci., 2020, 11,
     e01493. DOI: 10.1002/wcms.1493
   
   for GFN2-xTB:
   * C. Bannwarth, S. Ehlert and S. Grimme., J. Chem. Theory Comput., 2019,
     15, 1652-1671. DOI: 10.1021/acs.jctc.8b01176
   for GFN1-xTB:
   * S. Grimme, C. Bannwarth, P. Shushkov, J. Chem. Theory Comput., 2017,
     13, 1989-2009. DOI: 10.1021/acs.jctc.7b00118
   for GFN0-xTB:
   * P. Pracht, E. Caldeweyher, S. Ehlert, S. Grimme, ChemRxiv, 2019, preprint.
     DOI: 10.26434/chemrxiv.8326202.v1
   for GFN-FF:
   * S. Spicher and S. Grimme, Angew. Chem. Int. Ed., 2020, 59, 15665-15673.
     DOI: 10.1002/anie.202004239
   
   for ALPB and GBSA implicit solvation:
   * S. Ehlert, M. Stahn, S. Spicher, S. Grimme, J. Chem. Theory Comput.,
     2021, 17, 4250-4261. DOI: 10.1021/acs.jctc.1c00471
   
   for DFT-D4:
   * E. Caldeweyher, C. Bannwarth and S. Grimme, J. Chem. Phys., 2017,
     147, 034112. DOI: 10.1063/1.4993215
   * E. Caldeweyher, S. Ehlert, A. Hansen, H. Neugebauer, S. Spicher,
     C. Bannwarth and S. Grimme, J. Chem. Phys., 2019, 150, 154122.
     DOI: 10.1063/1.5090222
   * E. Caldeweyher, J.-M. Mewes, S. Ehlert and S. Grimme, Phys. Chem. Chem. Phys.
     2020, 22, 8499-8512. DOI: 10.1039/D0CP00502A
   
   for sTDA-xTB:
   * S. Grimme and C. Bannwarth, J. Chem. Phys., 2016, 145, 054103.
     DOI: 10.1063/1.4959605
   
   in the mass-spec context:
   * V. Asgeirsson, C. Bauer and S. Grimme, Chem. Sci., 2017, 8, 4879.
     DOI: 10.1039/c7sc00601b
   * J. Koopman and S. Grimme, ACS Omega 2019, 4, 12, 15120-15133.
     DOI: 10.1021/acsomega.9b02011
   
   for metadynamics refer to:
   * S. Grimme, J. Chem. Theory Comput., 2019, 155, 2847-2862
     DOI: 10.1021/acs.jctc.9b00143
   
   for SPH calculations refer to:
   * S. Spicher and S. Grimme, J. Chem. Theory Comput., 2021, 17, 1701-1714
     DOI: 10.1021/acs.jctc.0c01306
   
   with help from (in alphabetical order)
   P. Atkinson, C. Bannwarth, F. Bohle, G. Brandenburg, E. Caldeweyher
   M. Checinski, S. Dohm, S. Ehlert, S. Ehrlich, I. Gerasimov, C. Hölzer
   A. Katbashev, J. Koopman, C. Lavigne, S. Lehtola, F. März, M. Müller,
   F. Musil, H. Neugebauer, J. Pisarek, C. Plett, P. Pracht, F. Pultar,
   J. Seibert, P. Shushkov, S. Spicher, M. Stahn, M. Steiner, T. Strunk,
   J. Stückrath, T. Rose, and J. Unsleber
   
 * started run on 2024/04/20 at 10:58:44.009     

           -------------------------------------------------
          |                Calculation Setup                |
           -------------------------------------------------

          program call               : xtb unfolded.xyz --gfn 2 --ohess -P 4
          coordinate file            : unfolded.xyz
          omp threads                :                     4

   ID    Z sym.   atoms
    1    6 C      1-8
    2    1 H      9-26

           -------------------------------------------------
          |                 G F N 2 - x T B                 |
           -------------------------------------------------

        Reference                      10.1021/acs.jctc.8b01176
      * Hamiltonian:
        H0-scaling (s, p, d)           1.850000    2.230000    2.230000
        zeta-weighting                 0.500000
      * Dispersion:
        s8                             2.700000
        a1                             0.520000
        a2                             5.000000
        s9                             5.000000
      * Repulsion:
        kExp                           1.500000    1.000000
        rExp                           1.000000
      * Coulomb:
        alpha                          2.000000
        third order                    shell-resolved
        anisotropic                    true
        a3                             3.000000
        a5                             4.000000
        cn-shift                       1.200000
        cn-exp                         4.000000
        max-rad                        5.000000


          ...................................................
          :                      SETUP                      :
          :.................................................:
          :  # basis functions                  50          :
          :  # atomic orbitals                  50          :
          :  # shells                           34          :
          :  # electrons                        50          :
          :  max. iterations                   250          :
          :  Hamiltonian                  GFN2-xTB          :
          :  restarted?                      false          :
          :  GBSA solvation                  false          :
          :  PC potential                    false          :
          :  electronic temp.          300.0000000     K    :
          :  accuracy                    1.0000000          :
          :  -> integral cutoff          0.2500000E+02      :
          :  -> integral neglect         0.1000000E-07      :
          :  -> SCF convergence          0.1000000E-05 Eh   :
          :  -> wf. convergence          0.1000000E-03 e    :
          :  Broyden damping             0.4000000          :
          ...................................................

 iter      E             dE          RMSdq      gap      omega  full diag
   1    -26.6357415 -0.266357E+02  0.260E+00   12.36       0.0  T
   2    -26.7063138 -0.705723E-01  0.143E+00   12.29       1.0  T
   3    -26.7071842 -0.870430E-03  0.757E-01   12.29       1.0  T
   4    -26.7073776 -0.193357E-03  0.864E-02   12.33       1.0  T
   5    -26.7073856 -0.803590E-05  0.466E-02   12.33       1.0  T
   6    -26.7073869 -0.135058E-05  0.196E-03   12.33      10.0  T
   7    -26.7073870 -0.212260E-07  0.904E-04   12.33      21.7  T
   8    -26.7073870 -0.120520E-08  0.242E-04   12.33      81.1  T

   *** convergence criteria satisfied after 8 iterations ***

         #    Occupation            Energy/Eh            Energy/eV
      -------------------------------------------------------------
         1        2.0000           -0.6212963             -16.9063
       ...           ...                  ...                  ...
        19        2.0000           -0.4423946             -12.0382
        20        2.0000           -0.4334949             -11.7960
        21        2.0000           -0.4287055             -11.6657
        22        2.0000           -0.4255689             -11.5803
        23        2.0000           -0.4178570             -11.3705
        24        2.0000           -0.4165650             -11.3353
        25        2.0000           -0.4143848             -11.2760 (HOMO)
        26                          0.0388659               1.0576 (LUMO)
        27                          0.0943364               2.5670
        28                          0.1091771               2.9709
        29                          0.1159940               3.1564
        30                          0.1216678               3.3107
       ...                                ...                  ...
        50                          0.3054015               8.3104
      -------------------------------------------------------------
                  HL-Gap            0.4532507 Eh           12.3336 eV
             Fermi-level           -0.1877594 Eh           -5.1092 eV

 SCC (total)                   0 d,  0 h,  0 min,  0.013 sec
 SCC setup                      ...        0 min,  0.001 sec (  9.460%)
 Dispersion                     ...        0 min,  0.000 sec (  1.324%)
 classical contributions        ...        0 min,  0.000 sec (  0.173%)
 integral evaluation            ...        0 min,  0.001 sec (  5.847%)
 iterations                     ...        0 min,  0.007 sec ( 56.921%)
 molecular gradient             ...        0 min,  0.002 sec ( 16.569%)
 printout                       ...        0 min,  0.001 sec (  9.492%)

         :::::::::::::::::::::::::::::::::::::::::::::::::::::
         ::                     SUMMARY                     ::
         :::::::::::::::::::::::::::::::::::::::::::::::::::::
         :: total energy             -26.321023164119 Eh    ::
         :: gradient norm              0.025788013857 Eh/a0 ::
         :: HOMO-LUMO gap             12.333580179309 eV    ::
         ::.................................................::
         :: SCC energy               -26.707386961189 Eh    ::
         :: -> isotropic ES            0.004521015520 Eh    ::
         :: -> anisotropic ES          0.009023226202 Eh    ::
         :: -> anisotropic XC          0.016180112097 Eh    ::
         :: -> dispersion             -0.014766971458 Eh    ::
         :: repulsion energy           0.386458205514 Eh    ::
         :: add. restraining           0.000000000000 Eh    ::
         :: total charge               0.000000000000 e     ::
         :::::::::::::::::::::::::::::::::::::::::::::::::::::

      ----------------------------------------------------------- 
     |                   =====================                   |
     |                        A N C O P T                        |
     |                   =====================                   |
     |               Approximate Normal Coordinate               |
     |                Rational Function Optimizer                |
      ----------------------------------------------------------- 

          ...................................................
          :                      SETUP                      :
          :.................................................:
          :   optimization level            normal          :
          :   max. optcycles                   200          :
          :   ANC micro-cycles                  20          :
          :   degrees of freedom                72          :
          :.................................................:
          :   RF solver                   davidson          :
          :   write xtbopt.log                true          :
          :   linear?                        false          :
          :   energy convergence         0.5000000E-05 Eh   :
          :   grad. convergence          0.1000000E-02 Eh/α :
          :   maxmium RF displ.          2.0000000          :
          :   Hlow (freq-cutoff)         0.2000000E-01      :
          :   Hmax (freq-cutoff)         5.0000000          :
          :   S6 in model hess.         70.0000000          :
          ...................................................

generating ANC from model Hessian ...
Using Lindh-Hessian (1995)
 Shifting diagonal of input Hessian by   1.854988965776798E-002
 Lowest  eigenvalues of input Hessian
    0.000000    0.000000    0.000000    0.000000    0.000000    0.000000
    0.020000    0.020469    0.023051    0.023486    0.025783    0.025865
    0.027280    0.028115    0.032682    0.033069    0.035445    0.043355
 Highest eigenvalues
    1.179867    1.217897    1.226725    1.251444    1.293612    1.332496
 

........................................................................
.............................. CYCLE    1 ..............................
........................................................................

 iter      E             dE          RMSdq      gap      omega  full diag
   1    -26.7073870 -0.267074E+02  0.778E-05   12.33       0.0  T
   2    -26.7073870 -0.673950E-11  0.442E-05   12.33     443.9  T
   3    -26.7073870 -0.106937E-11  0.885E-06   12.33    2217.1  T
     SCC iter.                  ...        0 min,  0.008 sec
     gradient                   ...        0 min,  0.013 sec
 * total energy  :   -26.3210232 Eh     change       -0.1051852E-09 Eh
   gradient norm :     0.0257884 Eh/α   predicted     0.0000000E+00 (-100.00%)
   displ. norm   :     0.1493328 α      lambda       -0.2089348E-02
   maximum displ.:     0.1038352 α      in ANC's #31, #8, #21, ...

........................................................................
.............................. CYCLE    2 ..............................
........................................................................

 iter      E             dE          RMSdq      gap      omega  full diag
   1    -26.7142030 -0.267142E+02  0.148E-01   12.48       0.0  T
   2    -26.7142063 -0.331196E-05  0.846E-02   12.48       1.0  T
   3    -26.7142069 -0.592063E-06  0.384E-03   12.48       5.1  T
   4    -26.7142069 -0.356869E-07  0.149E-03   12.48      13.2  T
   5    -26.7142069 -0.130437E-08  0.729E-04   12.48      26.9  T
   6    -26.7142069 -0.544155E-09  0.340E-05   12.48     576.9  T
     SCC iter.                  ...        0 min,  0.008 sec
     gradient                   ...        0 min,  0.004 sec
 * total energy  :   -26.3223947 Eh     change       -0.1371564E-02 Eh
   gradient norm :     0.0116324 Eh/α   predicted    -0.1067974E-02 ( -22.13%)
   displ. norm   :     0.0838348 α      lambda       -0.3836373E-03
   maximum displ.:     0.0579919 α      in ANC's #8, #31, #5, ...

........................................................................
.............................. CYCLE    3 ..............................
........................................................................

 iter      E             dE          RMSdq      gap      omega  full diag
   1    -26.7190896 -0.267191E+02  0.673E-02   12.55       0.0  T
   2    -26.7190918 -0.211960E-05  0.378E-02   12.55       1.0  T
   3    -26.7190919 -0.843638E-07  0.402E-03   12.55       4.9  T
   4    -26.7190919 -0.236246E-07  0.736E-04   12.55      26.6  T
   5    -26.7190919 -0.160476E-08  0.414E-04   12.55      47.4  T
     SCC iter.                  ...        0 min,  0.015 sec
     gradient                   ...        0 min,  0.017 sec
 * total energy  :   -26.3226046 Eh     change       -0.2098371E-03 Eh
   gradient norm :     0.0018637 Eh/α   predicted    -0.1932861E-03 (  -7.89%)
   displ. norm   :     0.0337906 α      lambda       -0.1601375E-04
   maximum displ.:     0.0263900 α      in ANC's #8, #5, #1, ...

........................................................................
.............................. CYCLE    4 ..............................
........................................................................

 iter      E             dE          RMSdq      gap      omega  full diag
   1    -26.7204393 -0.267204E+02  0.142E-02   12.57       0.0  T
   2    -26.7204394 -0.162748E-06  0.793E-03   12.57       2.5  T
   3    -26.7204395 -0.617226E-08  0.122E-03   12.57      16.1  T
   4    -26.7204395 -0.144158E-08  0.249E-04   12.57      78.9  T
   5    -26.7204395 -0.147001E-09  0.132E-04   12.57     148.7  T
     SCC iter.                  ...        0 min,  0.007 sec
     gradient                   ...        0 min,  0.008 sec
 * total energy  :   -26.3226174 Eh     change       -0.1285201E-04 Eh
   gradient norm :     0.0012157 Eh/α   predicted    -0.8015159E-05 ( -37.63%)
   displ. norm   :     0.0151709 α      lambda       -0.3342700E-05
   maximum displ.:     0.0097108 α      in ANC's #5, #8, #1, ...

........................................................................
.............................. CYCLE    5 ..............................
........................................................................

 iter      E             dE          RMSdq      gap      omega  full diag
   1    -26.7202558 -0.267203E+02  0.589E-03   12.58       0.0  T
   2    -26.7202559 -0.140066E-07  0.339E-03   12.58       5.8  T
   3    -26.7202559 -0.128670E-08  0.237E-04   12.58      82.8  T
   4    -26.7202559 -0.164807E-09  0.809E-05   12.58     242.4  T
     SCC iter.                  ...        0 min,  0.019 sec
     gradient                   ...        0 min,  0.009 sec
 * total energy  :   -26.3226206 Eh     change       -0.3164682E-05 Eh
   gradient norm :     0.0004512 Eh/α   predicted    -0.1674499E-05 ( -47.09%)
   displ. norm   :     0.0137799 α      lambda       -0.1136151E-05
   maximum displ.:     0.0089066 α      in ANC's #5, #1, #3, ...

   *** GEOMETRY OPTIMIZATION CONVERGED AFTER 5 ITERATIONS ***

------------------------------------------------------------------------
 total energy gain   :        -0.0015974 Eh       -1.0024 kcal/mol
 total RMSD          :         0.0502837 a0        0.0266 Å
 total power (kW/mol):        -0.8388039 (step)  -28.0775 (real)
------------------------------------------------------------------------

 ANCopt (total)                0 d,  0 h,  0 min,  0.149 sec
 optimizer setup                ...        0 min,  0.001 sec (  0.623%)
 model hessian                  ...        0 min,  0.008 sec (  5.099%)
 ANC generation                 ...        0 min,  0.001 sec (  0.829%)
 coordinate transformation      ...        0 min,  0.000 sec (  0.061%)
 single point calculation       ...        0 min,  0.133 sec ( 89.293%)
 optimization log               ...        0 min,  0.001 sec (  0.423%)
 hessian update                 ...        0 min,  0.002 sec (  1.256%)
 rational function              ...        0 min,  0.001 sec (  0.809%)

================
 final structure:
================
26
 xtb: 6.6.1 (8d0f1dd)
C            4.44051172565658       -0.26930823840715       -0.03821638774163
C            3.14957973385110        0.53951367134164        0.00656154345569
C            1.91412816295825       -0.35769007740921        0.00601199254197
C            0.61778580476467        0.44864693261024        0.02824246387538
C           -0.61781436601358       -0.44836897812852        0.02721335908847
C           -1.91423784329236        0.35784694664481        0.00532914630793
C           -3.14953036117178       -0.53958008840137        0.00770699344712
C           -4.44066634094068        0.26886309823005       -0.03796856278319
H            4.50799739210021       -0.92842277684759        0.82465942658244
H            5.30601736132936        0.38927539935264       -0.03583250607073
H            4.47643275425807       -0.88019214648980       -0.93773031135538
H            3.14227246934575        1.16205629432160        0.90419252535727
H            3.10996892918927        1.20653075577880       -0.85773375928561
H            1.92938426426054       -0.99027437959512       -0.88479945358550
H            1.94581879666049       -1.01586760251368        0.87758988354183
H            0.60236033449064        1.08396317692638        0.91706694003230
H            0.58732009296725        1.10465764783568       -0.84512705215483
H           -0.58676989498491       -1.10316369202305       -0.84704344205148
H           -0.60290675577284       -1.08492809801030        0.91516182875783
H           -1.94533910273857        1.01659465966477        0.87649987326533
H           -1.93027518396474        0.98983404583230       -0.88588799640874
H           -3.11013992179477       -1.20811829416905       -0.85541815766479
H           -3.14170430452892       -1.16053992761924        0.90643490446797
H           -4.50489222843758        0.93399355283445        0.82053384101557
H           -5.30610984522763       -0.38972605396036       -0.02765320708736
H           -4.48008567296383        0.87343617220109       -0.94158488554787
           -------------------------------------------------
          |                Final Singlepoint                |
           -------------------------------------------------

          ...................................................
          :                      SETUP                      :
          :.................................................:
          :  # basis functions                  50          :
          :  # atomic orbitals                  50          :
          :  # shells                           34          :
          :  # electrons                        50          :
          :  max. iterations                   250          :
          :  Hamiltonian                  GFN2-xTB          :
          :  restarted?                      false          :
          :  GBSA solvation                  false          :
          :  PC potential                    false          :
          :  electronic temp.          300.0000000     K    :
          :  accuracy                    1.0000000          :
          :  -> integral cutoff          0.2500000E+02      :
          :  -> integral neglect         0.1000000E-07      :
          :  -> SCF convergence          0.1000000E-05 Eh   :
          :  -> wf. convergence          0.1000000E-03 e    :
          :  Broyden damping             0.4000000          :
          ...................................................

 iter      E             dE          RMSdq      gap      omega  full diag
   1    -26.7202559 -0.267203E+02  0.419E-05   12.58       0.0  T
   2    -26.7202559 -0.130029E-11  0.249E-05   12.58     788.6  T
   3    -26.7202559 -0.710543E-14  0.497E-06   12.58    3947.7  T

   *** convergence criteria satisfied after 3 iterations ***

         #    Occupation            Energy/Eh            Energy/eV
      -------------------------------------------------------------
         1        2.0000           -0.6222931             -16.9335
       ...           ...                  ...                  ...
        19        2.0000           -0.4437107             -12.0740
        20        2.0000           -0.4324277             -11.7670
        21        2.0000           -0.4272620             -11.6264
        22        2.0000           -0.4270906             -11.6217
        23        2.0000           -0.4187060             -11.3936
        24        2.0000           -0.4165978             -11.3362
        25        2.0000           -0.4150980             -11.2954 (HOMO)
        26                          0.0472459               1.2856 (LUMO)
        27                          0.1071075               2.9145
        28                          0.1140989               3.1048
        29                          0.1149178               3.1271
        30                          0.1238425               3.3699
       ...                                ...                  ...
        50                          0.3234059               8.8003
      -------------------------------------------------------------
                  HL-Gap            0.4623439 Eh           12.5810 eV
             Fermi-level           -0.1839260 Eh           -5.0049 eV

 SCC (total)                   0 d,  0 h,  0 min,  0.021 sec
 SCC setup                      ...        0 min,  0.002 sec (  7.474%)
 Dispersion                     ...        0 min,  0.001 sec (  6.587%)
 classical contributions        ...        0 min,  0.000 sec (  1.093%)
 integral evaluation            ...        0 min,  0.002 sec ( 11.459%)
 iterations                     ...        0 min,  0.008 sec ( 36.978%)
 molecular gradient             ...        0 min,  0.006 sec ( 29.874%)
 printout                       ...        0 min,  0.001 sec (  6.400%)

         :::::::::::::::::::::::::::::::::::::::::::::::::::::
         ::                     SUMMARY                     ::
         :::::::::::::::::::::::::::::::::::::::::::::::::::::
         :: total energy             -26.322620581768 Eh    ::
         :: gradient norm              0.000451349585 Eh/a0 ::
         :: HOMO-LUMO gap             12.581018941271 eV    ::
         ::.................................................::
         :: SCC energy               -26.720255861344 Eh    ::
         :: -> isotropic ES            0.004820784070 Eh    ::
         :: -> anisotropic ES          0.008704636244 Eh    ::
         :: -> anisotropic XC          0.016413078314 Eh    ::
         :: -> dispersion             -0.014823780098 Eh    ::
         :: repulsion energy           0.397730399990 Eh    ::
         :: add. restraining           0.000000000000 Eh    ::
         :: total charge              -0.000000000000 e     ::
         :::::::::::::::::::::::::::::::::::::::::::::::::::::

           ------------------------------------------------- 
          |                Numerical Hessian                |
           ------------------------------------------------- 
step length          :   0.00500
SCC accuracy         :   0.30000
Hessian scale factor :   1.00000
frozen atoms in %    :   0.00000    0
RMS gradient         :   0.00045
estimated CPU  time      0.12 min
estimated wall time      0.04 min

writing file <hessian>.

 projected vibrational frequencies (cm⁻¹)
eigval :       -0.00    -0.00     0.00     0.00     0.00     0.00
eigval :       44.22    64.08    80.72   100.90   127.11   146.22
eigval :      199.41   232.08   234.27   279.04   341.74   469.51
eigval :      469.54   768.16   773.05   794.44   840.30   903.32
eigval :      933.39   948.97   967.75  1019.57  1044.26  1074.42
eigval :     1097.26  1105.15  1108.76  1122.76  1145.81  1199.06
eigval :     1217.03  1239.64  1248.91  1274.30  1277.53  1285.08
eigval :     1292.77  1295.70  1326.92  1359.83  1377.24  1379.08
eigval :     1415.95  1416.04  1495.66  1495.79  1498.54  1499.29
eigval :     1501.77  1504.43  1504.79  1504.80  1507.90  1508.10
eigval :     2953.45  2955.73  2959.57  2965.25  2972.44  2973.33
eigval :     2973.37  2976.98  2978.14  2979.53  2983.73  2990.24
eigval :     3030.02  3030.21  3032.40  3032.59  3037.71  3038.11
           -------------------------------------------------
          |                Property Printout                |
           -------------------------------------------------

    * Orbital Energies and Occupations

         #    Occupation            Energy/Eh            Energy/eV
      -------------------------------------------------------------
         1        2.0000           -0.6222931             -16.9335
       ...           ...                  ...                  ...
        13        2.0000           -0.4894011             -13.3173
        14        2.0000           -0.4825836             -13.1318
        15        2.0000           -0.4672944             -12.7157
        16        2.0000           -0.4664866             -12.6937
        17        2.0000           -0.4488364             -12.2135
        18        2.0000           -0.4465843             -12.1522
        19        2.0000           -0.4437107             -12.0740
        20        2.0000           -0.4324277             -11.7670
        21        2.0000           -0.4272620             -11.6264
        22        2.0000           -0.4270906             -11.6217
        23        2.0000           -0.4187060             -11.3936
        24        2.0000           -0.4165978             -11.3362
        25        2.0000           -0.4150980             -11.2954 (HOMO)
        26                          0.0472459               1.2856 (LUMO)
        27                          0.1071075               2.9145
        28                          0.1140989               3.1048
        29                          0.1149178               3.1271
        30                          0.1238425               3.3699
        31                          0.1359240               3.6987
        32                          0.1392982               3.7905
        33                          0.1491963               4.0598
        34                          0.1625384               4.4229
        35                          0.1722540               4.6873
        36                          0.1757468               4.7823
       ...                                ...                  ...
        50                          0.3234059               8.8003
      -------------------------------------------------------------
                  HL-Gap            0.4623439 Eh           12.5810 eV
             Fermi-level           -0.1839260 Eh           -5.0049 eV

     #   Z          covCN         q      C6AA      α(0)
     1   6 C        3.752    -0.102    22.510     6.766
     2   6 C        3.801    -0.053    21.523     6.605
     3   6 C        3.803    -0.059    21.633     6.622
     4   6 C        3.803    -0.058    21.620     6.620
     5   6 C        3.803    -0.058    21.620     6.620
     6   6 C        3.803    -0.059    21.633     6.622
     7   6 C        3.801    -0.053    21.523     6.605
     8   6 C        3.752    -0.102    22.510     6.766
     9   1 H        0.925     0.033     2.542     2.493
    10   1 H        0.925     0.033     2.550     2.497
    11   1 H        0.925     0.033     2.542     2.493
    12   1 H        0.924     0.028     2.609     2.526
    13   1 H        0.924     0.029     2.608     2.525
    14   1 H        0.924     0.030     2.591     2.517
    15   1 H        0.924     0.030     2.593     2.518
    16   1 H        0.924     0.028     2.609     2.526
    17   1 H        0.924     0.029     2.607     2.525
    18   1 H        0.924     0.029     2.607     2.525
    19   1 H        0.924     0.028     2.609     2.526
    20   1 H        0.924     0.030     2.593     2.518
    21   1 H        0.924     0.030     2.590     2.517
    22   1 H        0.924     0.029     2.608     2.525
    23   1 H        0.924     0.028     2.609     2.526
    24   1 H        0.925     0.033     2.541     2.493
    25   1 H        0.925     0.033     2.550     2.497
    26   1 H        0.925     0.033     2.542     2.493

 Mol. C6AA /au·bohr⁶  :       4381.940183
 Mol. C8AA /au·bohr⁸  :      90678.591188
 Mol. α(0) /au        :         98.467219


Wiberg/Mayer (AO) data.
largest (>0.10) Wiberg bond orders for each atom

 ---------------------------------------------------------------------------
     #   Z sym  total        # sym  WBO       # sym  WBO       # sym  WBO
 ---------------------------------------------------------------------------
     1   6 C    3.997 --     2 C    1.019     9 H    0.988    11 H    0.988
                            10 H    0.988
     2   6 C    3.998 --     1 C    1.019     3 C    1.008    12 H    0.979
                            13 H    0.979
     3   6 C    3.997 --     2 C    1.008     4 C    1.007    15 H    0.978
                            14 H    0.977
     4   6 C    3.997 --     3 C    1.007     5 C    1.007    16 H    0.978
                            17 H    0.977
     5   6 C    3.997 --     6 C    1.007     4 C    1.007    19 H    0.978
                            18 H    0.977
     6   6 C    3.997 --     7 C    1.008     5 C    1.007    20 H    0.978
                            21 H    0.977
     7   6 C    3.998 --     8 C    1.019     6 C    1.008    23 H    0.979
                            22 H    0.979
     8   6 C    3.997 --     7 C    1.019    26 H    0.988    24 H    0.988
                            25 H    0.988
     9   1 H    0.999 --     1 C    0.988
    10   1 H    0.999 --     1 C    0.988
    11   1 H    0.999 --     1 C    0.988
    12   1 H    0.999 --     2 C    0.979
    13   1 H    0.999 --     2 C    0.979
    14   1 H    0.999 --     3 C    0.977
    15   1 H    0.999 --     3 C    0.978
    16   1 H    0.999 --     4 C    0.978
    17   1 H    0.999 --     4 C    0.977
    18   1 H    0.999 --     5 C    0.977
    19   1 H    0.999 --     5 C    0.978
    20   1 H    0.999 --     6 C    0.978
    21   1 H    0.999 --     6 C    0.977
    22   1 H    0.999 --     7 C    0.979
    23   1 H    0.999 --     7 C    0.979
    24   1 H    0.999 --     8 C    0.988
    25   1 H    0.999 --     8 C    0.988
    26   1 H    0.999 --     8 C    0.988
 ---------------------------------------------------------------------------

Topologies differ in total number of bonds
Writing topology from bond orders to xtbtopo.mol

molecular dipole:
                 x           y           z       tot (Debye)
 q only:       -0.000      -0.000      -0.002
   full:       -0.000      -0.000      -0.001       0.003
molecular quadrupole (traceless):
                xx          xy          yy          xz          yz          zz
 q only:        0.536      -0.142      -0.060      -0.001      -0.000      -0.476
  q+dip:       -2.179       0.284       0.013      -0.000       0.000       2.166
   full:       -0.876       0.091      -0.050      -0.000       0.000       0.926

           -------------------------------------------------
          |                Geometry Summary                 |
           -------------------------------------------------

      molecular mass/u    :      114.2288207
   center of mass at/Å    :       -0.0000313      -0.0000159      -0.0001634
  moments of inertia/u·Å² :        0.4738346E+02   0.1015832E+04   0.1038019E+04
rotational constants/cm⁻¹ :        0.3557704E+00   0.1659490E-01   0.1624020E-01

 * 25 selected distances

     #   Z          #   Z                                           value/Å
     1   6 C        2   6 C                                       1.5240419
     2   6 C        3   6 C                                       1.5268647
     3   6 C        4   6 C                                       1.5268194
     4   6 C        5   6 C                                       1.5268749 (max)
     5   6 C        6   6 C                                       1.5268193
     6   6 C        7   6 C                                       1.5268690
     7   6 C        8   6 C                                       1.5240404
     1   6 C        9   1 H                                       1.0879068
     1   6 C       10   1 H                                       1.0875837 (min)
     1   6 C       11   1 H                                       1.0879315
     2   6 C       12   1 H                                       1.0924076
     2   6 C       13   1 H                                       1.0924685
     3   6 C       14   1 H                                       1.0926760
     3   6 C       15   1 H                                       1.0926345
     4   6 C       16   1 H                                       1.0926453
     4   6 C       17   1 H                                       1.0927272
     5   6 C       18   1 H                                       1.0927237
     5   6 C       19   1 H                                       1.0926493
     6   6 C       20   1 H                                       1.0926365
     6   6 C       21   1 H                                       1.0926725
     7   6 C       22   1 H                                       1.0924652
     7   6 C       23   1 H                                       1.0924122
     8   6 C       24   1 H                                       1.0879109
     8   6 C       25   1 H                                       1.0875839
     8   6 C       26   1 H                                       1.0879270

 * 2 distinct bonds (by element types)

   Z      Z             #   av. dist./Å        max./Å        min./Å
   1 H    6 C          18     1.0909979     1.0927272     1.0875837
   6 C    6 C           7     1.5260471     1.5268749     1.5240404

           -------------------------------------------------
          |               Frequency Printout                |
           -------------------------------------------------
 projected vibrational frequencies (cm⁻¹)
eigval :       -0.00    -0.00     0.00     0.00     0.00     0.00
eigval :       44.22    64.08    80.72   100.90   127.11   146.22
eigval :      199.41   232.08   234.27   279.04   341.74   469.51
eigval :      469.54   768.16   773.05   794.44   840.30   903.32
eigval :      933.39   948.97   967.75  1019.57  1044.26  1074.42
eigval :     1097.26  1105.15  1108.76  1122.76  1145.81  1199.06
eigval :     1217.03  1239.64  1248.91  1274.30  1277.53  1285.08
eigval :     1292.77  1295.70  1326.92  1359.83  1377.24  1379.08
eigval :     1415.95  1416.04  1495.66  1495.79  1498.54  1499.29
eigval :     1501.77  1504.43  1504.79  1504.80  1507.90  1508.10
eigval :     2953.45  2955.73  2959.57  2965.25  2972.44  2973.33
eigval :     2973.37  2976.98  2978.14  2979.53  2983.73  2990.24
eigval :     3030.02  3030.21  3032.40  3032.59  3037.71  3038.11
 reduced masses (amu)
   1:  9.21   2:  8.48   3: 10.22   4: 10.00   5:  9.06   6:  8.24   7:  8.94   8:  5.08
   9:  9.21  10:  7.94  11:  5.94  12:  7.20  13:  8.84  14:  2.06  15:  2.27  16:  9.94
  17:  8.60  18:  8.73  19:  9.40  20:  1.59  21:  1.79  22:  2.16  23:  2.56  24:  2.71
  25:  6.27  26:  5.72  27:  2.44  28:  1.68  29: 10.08  30: 10.13  31:  7.77  32:  7.62
  33:  8.84  34:  7.29  35:  8.65  36:  6.71  37:  5.31  38:  3.54  39:  3.87  40:  1.32
  41:  2.76  42:  3.56  43:  1.97  44:  2.29  45:  3.91  46:  4.51  47:  5.24  48:  5.85
  49:  3.18  50:  3.19  51:  1.93  52:  1.87  53:  1.98  54:  1.82  55:  2.03  56:  1.76
  57:  1.54  58:  1.55  59:  1.67  60:  1.63  61:  1.89  62:  1.92  63:  1.96  64:  2.00
  65:  2.00  66:  1.47  67:  1.49  68:  1.44  69:  1.48  70:  2.05  71:  1.51  72:  1.53
  73:  1.96  74:  1.96  75:  1.93  76:  1.93  77:  1.26  78:  1.27
 IR intensities (km·mol⁻¹)
   1:  0.01   2:  0.01   3:  0.00   4:  0.00   5:  0.01   6:  0.01   7:  0.00   8:  0.00
   9:  0.06  10:  0.00  11:  0.00  12:  0.00  13:  0.00  14:  0.01  15:  0.00  16:  0.00
  17:  0.30  18:  0.00  19:  0.13  20: 15.84  21:  0.01  22:  3.68  23:  0.00  24:  2.03
  25:  6.58  26:  0.00  27:  0.01  28:  0.42  29:  0.00  30:  0.62  31:  4.54  32:  0.00
  33:  0.00  34:  4.04  35:  0.00  36:  0.00  37:  0.64  38:  0.46  39:  0.00  40:  0.00
  41:  0.02  42:  0.00  43:  0.09  44:  0.00  45:  1.33  46:  0.00  47:  0.85  48:  0.00
  49:  1.66  50:  0.00  51:  0.15  52:  0.00  53:  0.00  54:  0.19  55:  0.52  56:  0.42
  57:  1.37  58:  3.07  59:  2.33  60:  0.00  61:  0.02  62:  0.18  63:  0.00  64:  3.95
  65:  0.04  66:  0.59  67:  0.48  68:  4.09  69:  1.39  70:269.63  71:  1.68  72:214.55
  73:  0.19  74:122.73  75:  0.06  76:123.03  77: 65.29  78:  0.01
 Raman intensities (amu)
   1:  0.00   2:  0.00   3:  0.00   4:  0.00   5:  0.00   6:  0.00   7:  0.00   8:  0.00
   9:  0.00  10:  0.00  11:  0.00  12:  0.00  13:  0.00  14:  0.00  15:  0.00  16:  0.00
  17:  0.00  18:  0.00  19:  0.00  20:  0.00  21:  0.00  22:  0.00  23:  0.00  24:  0.00
  25:  0.00  26:  0.00  27:  0.00  28:  0.00  29:  0.00  30:  0.00  31:  0.00  32:  0.00
  33:  0.00  34:  0.00  35:  0.00  36:  0.00  37:  0.00  38:  0.00  39:  0.00  40:  0.00
  41:  0.00  42:  0.00  43:  0.00  44:  0.00  45:  0.00  46:  0.00  47:  0.00  48:  0.00
  49:  0.00  50:  0.00  51:  0.00  52:  0.00  53:  0.00  54:  0.00  55:  0.00  56:  0.00
  57:  0.00  58:  0.00  59:  0.00  60:  0.00  61:  0.00  62:  0.00  63:  0.00  64:  0.00
  65:  0.00  66:  0.00  67:  0.00  68:  0.00  69:  0.00  70:  0.00  71:  0.00  72:  0.00
  73:  0.00  74:  0.00  75:  0.00  76:  0.00  77:  0.00  78:  0.00
 output can be read by thermo (or use thermo option).
 writing <g98.out> molden fake output.
 recommended (thermochemical) frequency scaling factor: 1.0
           -------------------------------------------------
          |             Thermodynamic Functions             |
           -------------------------------------------------

Molecule has the following symmetry elements: (C2) 
It seems to be the C2 point group
c2  symmetry found (for desy threshold:  0.10E+00) used in thermo

          ...................................................
          :                      SETUP                      :
          :.................................................:
          :  # frequencies                          72      :
          :  # imaginary freq.                       0      :
          :  linear?                             false      :
          :  only rotor calc.                    false      :
          :  symmetry                               c2      :
          :  rotational number                       2      :
          :  scaling factor                  1.0000000      :
          :  rotor cutoff                   50.0000000 cm⁻¹ :
          :  imag. cutoff                  -20.0000000 cm⁻¹ :
          :.................................................:

    mode    ω/cm⁻¹     T·S(HO)/kcal·mol⁻¹    T·S(FR)/kcal·mol⁻¹   T·S(vib)
   ------------------------------------------------------------------------
       1     44.22    -1.50879 ( 37.95%)    -1.09279 ( 62.05%)    -1.25068
       2     64.08    -1.29023 ( 72.96%)    -0.98294 ( 27.04%)    -1.20712
       3     80.72    -1.15484 ( 87.17%)    -0.91458 ( 12.83%)    -1.12400
       4    100.90    -1.02467 ( 94.31%)    -0.84847 (  5.69%)    -1.01465
       5    127.11    -0.89128 ( 97.66%)    -0.78010 (  2.34%)    -0.88868
       6    146.22    -0.81121 ( 98.65%)    -0.73860 (  1.35%)    -0.81023
       7    199.41    -0.63760 ( 99.61%)    -0.64671 (  0.39%)    -0.63763
       8    232.08    -0.55540 ( 99.79%)    -0.60178 (  0.21%)    -0.55550
       9    234.27    -0.55039 ( 99.79%)    -0.59899 (  0.21%)    -0.55049
      10    279.04    -0.45901 ( 99.90%)    -0.54718 (  0.10%)    -0.45910
   ------------------------------------------------------------------------

   temp. (K)  partition function   enthalpy   heat capacity  entropy
                                   cal/mol     cal/K/mol   cal/K/mol   J/K/mol
 298.15  VIB  0.618E+04             5224.119     31.699     33.578
         ROT  0.270E+06              888.752      2.981     27.834
         INT  0.167E+10             6112.871     34.680     61.411
         TR   0.118E+28             1481.254      4.968     40.096
         TOT                        7594.1252    39.6478   101.5078   424.7088

       T/K    H(0)-H(T)+PV         H(T)/Eh          T*S/Eh         G(T)/Eh
   ------------------------------------------------------------------------
    298.15    0.121020E-01    0.255695E+00    0.482297E-01    0.207466E+00
   ------------------------------------------------------------------------

         :::::::::::::::::::::::::::::::::::::::::::::::::::::
         ::                  THERMODYNAMIC                  ::
         :::::::::::::::::::::::::::::::::::::::::::::::::::::
         :: total free energy         -26.115154806286 Eh   ::
         ::.................................................::
         :: total energy              -26.322620581768 Eh   ::
         :: zero point energy           0.243593420464 Eh   ::
         :: G(RRHO) w/o ZPVE           -0.036127644982 Eh   ::
         :: G(RRHO) contrib.            0.207465775482 Eh   ::
         :::::::::::::::::::::::::::::::::::::::::::::::::::::
 
 normal mode %tage of torsion character
   1:  0.00   2:  0.00   3:  0.00   4:  0.00   5:  0.00   6:  0.00   7:  0.31   8:  0.66
   9:  0.26  10:  0.51  11:  0.71  12:  0.69  13:  0.20  14:  0.89  15:  0.89  16:  0.03
  17:  0.11  18:  0.06  19:  0.04  20:  0.57  21:  0.48  22:  0.51  23:  0.57  24:  0.53
  25:  0.10  26:  0.09  27:  0.47  28:  0.40  29:  0.07  30:  0.04  31:  0.06  32:  0.02
  33:  0.02  34:  0.05  35:  0.06  36:  0.59  37:  0.49  38:  0.07  39:  0.33  40:  0.13
  41:  0.24  42:  0.07  43:  0.09  44:  0.15  45:  0.06  46:  0.06  47:  0.06  48:  0.05
  49:  0.00  50:  0.00  51:  0.65  52:  0.63  53:  0.66  54:  0.60  55:  0.63  56:  0.60
  57:  0.92  58:  0.89  59:  0.85  60:  0.84  61:  0.37  62:  0.39  63:  0.34  64:  0.20
  65:  0.04  66:  0.01  67:  0.01  68:  0.01  69:  0.01  70:  0.01  71:  0.01  72:  0.01
  73:  0.07  74:  0.07  75:  0.03  76:  0.03  77:  0.00  78:  0.00
 recommended # of modes for mode following           4

optimized geometry written to: xtbopt.xyz


           -------------------------------------------------
          | TOTAL ENERGY              -26.322620581768 Eh   |
          | TOTAL ENTHALPY            -26.066925152482 Eh   |
          | TOTAL FREE ENERGY         -26.115154806286 Eh   |
          | GRADIENT NORM               0.000451365305 Eh/α |
          | HOMO-LUMO GAP              12.581018951928 eV   |
           -------------------------------------------------

------------------------------------------------------------------------
 * finished run on 2024/04/20 at 10:58:44.869     
------------------------------------------------------------------------
 total:
 * wall-time:     0 d,  0 h,  0 min,  0.859 sec
 *  cpu-time:     0 d,  0 h,  0 min,  2.348 sec
 * ratio c/w:     2.733 speedup
 SCF:
 * wall-time:     0 d,  0 h,  0 min,  0.014 sec
 *  cpu-time:     0 d,  0 h,  0 min,  0.051 sec
 * ratio c/w:     3.695 speedup
 ANC optimizer:
 * wall-time:     0 d,  0 h,  0 min,  0.177 sec
 *  cpu-time:     0 d,  0 h,  0 min,  0.338 sec
 * ratio c/w:     1.904 speedup
 analytical hessian:
 * wall-time:     0 d,  0 h,  0 min,  0.613 sec
 *  cpu-time:     0 d,  0 h,  0 min,  1.833 sec
 * ratio c/w:     2.989 speedup

