26
 energy: -26.322620581768 gnorm: 0.000451349585 xtb: 6.6.1 (8d0f1dd)
C            4.44051018207495       -0.26933155556756       -0.03823141801981
C            3.14958258157660        0.53949719162443        0.00654960771937
C            1.91412631104753       -0.35770008926259        0.00600593526113
C            0.61778825244460        0.44864374717637        0.02823952435927
C           -0.61781661866030       -0.44836569575746        0.02721629821872
C           -1.91423595097213        0.35785697886629        0.00533520369775
C           -3.14953315943832       -0.53956358403964        0.00771892912692
C           -4.44066506562614        0.26888628323360       -0.03795353118781
H            4.50799540941829       -0.92844494136545        0.82464531110016
H            5.30601927438379        0.38924755456591       -0.03585170697882
H            4.47642487219465       -0.88021722165449       -0.93774440082120
H            3.14228171002457        1.16204141950087        0.90417952857943
H            3.10997225243713        1.20651297498904       -0.85774672091199
H            1.92937599062302       -0.99028602606262       -0.88480446004551
H            1.94581654093243       -1.01587625911434        0.87758486436966
H            0.60236921126593        1.08396162352553        0.91706294551846
H            0.58732292686516        1.10465309760852       -0.84513103027357
H           -0.58677862786529       -1.10316209804048       -0.84703946844784
H           -0.60290924189875       -1.08492334393940        0.91516582684920
H           -1.94533072025930        1.01660637518585        0.87650488948074
H           -1.93027309351417        0.98984260656441       -0.88588298605682
H           -3.11014923339890       -1.20810350246679       -0.85540519265771
H           -3.14170721696951       -1.16052189566550        0.90644789660220
H           -4.50488447376434        0.93401857246750        0.82054793592342
H           -5.30611198224919       -0.38969831949169       -0.02763400506942
H           -4.48008438633924        0.87345798650308       -0.94157077152525
