26
 energy: -26.321023164225 gnorm: 0.025788375458 xtb: 6.6.1 (8d0f1dd)
C            4.46374000000000       -0.26529400000000       -0.04050700000000
C            3.17131800000000        0.53498300000000        0.00624600000000
C            1.92586600000000       -0.35285400000000        0.00665200000000
C            0.62192800000000        0.44472100000000        0.03164000000000
C           -0.62179900000000       -0.44424900000000        0.03026800000000
C           -1.92589100000000        0.35306700000000        0.00595200000000
C           -3.17112800000000       -0.53511300000000        0.00688600000000
C           -4.46395200000000        0.26482700000000       -0.04056000000000
H            4.54525000000000       -0.93561800000000        0.81786700000000
H            5.34670400000000        0.37861800000000       -0.03933600000000
H            4.51149900000000       -0.88588400000000       -0.93799100000000
H            3.15698600000000        1.18039000000000        0.89519300000000
H            3.12365500000000        1.22639800000000       -0.84615900000000
H            1.94011500000000       -1.00674200000000       -0.87431900000000
H            1.95842400000000       -1.03404100000000        0.86618500000000
H            0.60606400000000        1.10082900000000        0.91089700000000
H            0.58984400000000        1.12329400000000       -0.82993800000000
H           -0.58909900000000       -1.12152300000000       -0.83236700000000
H           -0.60646900000000       -1.10216900000000        0.90826000000000
H           -1.95791400000000        1.03461800000000        0.86523800000000
H           -1.94110000000000        1.00671900000000       -0.87524100000000
H           -3.12358000000000       -1.22755100000000       -0.84461800000000
H           -3.15643000000000       -1.17928400000000        0.89667500000000
H           -4.54058600000000        0.94227900000000        0.81244700000000
H           -5.34682800000000       -0.37896400000000       -0.02826000000000
H           -4.51751100000000        0.87757500000000       -0.94290100000000
26
 energy: -26.322394727958 gnorm: 0.011632433266 xtb: 6.6.1 (8d0f1dd)
C            4.45200831742214       -0.26782108703611       -0.04006335324917
C            3.16164618680764        0.53634155018666        0.00651465633361
C            1.92081741517708       -0.35593175656812        0.00650322258075
C            0.62049232214895        0.44610913500556        0.03070797193599
C           -0.62046313976661       -0.44572435658420        0.02944859325903
C           -1.92089109458343        0.35614345325564        0.00573793728900
C           -3.16154047323583       -0.53639653824310        0.00715675575905
C           -4.45223543860372        0.26731989336900       -0.03985027704938
H            4.52870018487024       -0.93065954338037        0.82169787436169
H            5.32273734128155        0.38747777478693       -0.03826987702237
H            4.49524531582891       -0.88105342902754       -0.94008302837692
H            3.15464926411422        1.16607121005705        0.90305485715657
H            3.12098010132775        1.21207346748906       -0.85497897990970
H            1.93617595835797       -0.99453773866486       -0.88319522845151
H            1.95450352425491       -1.02177186263198        0.87546685698180
H            0.60580995590437        1.08731029507877        0.91856923510512
H            0.58957774721724        1.11017453811755       -0.83981405057141
H           -0.58885210255181       -1.10829858791217       -0.84220731397991
H           -0.60634586579302       -1.08858617069400        0.91616513014763
H           -1.95403873281137        1.02229025444893        0.87449771994205
H           -1.93706261217941        0.99446347335060       -0.88416959242686
H           -3.12099329067782       -1.21332754336420       -0.85337290226318
H           -3.15414509332152       -1.16480628105372        0.90459455612812
H           -4.52434678100807        0.93743965794796        0.81663629557658
H           -5.32284838123356       -0.38803788163674       -0.02773242012764
H           -4.50047462894684        0.87277007370338       -0.94480563912894
26
 energy: -26.322604565067 gnorm: 0.001863732786 xtb: 6.6.1 (8d0f1dd)
C            4.44456743682380       -0.26927992145332       -0.03949974903752
C            3.15378323468483        0.53797256274989        0.00659227925061
C            1.91645426882401       -0.35779101563706        0.00630420216546
C            0.61891814598439        0.44787231580994        0.02989551400283
C           -0.61893812718834       -0.44753538419434        0.02868264947417
C           -1.91656238495795        0.35798958814368        0.00554909329448
C           -3.15370977279205       -0.53803044743604        0.00743113642376
C           -4.44475689410978        0.26877828711933       -0.03924952201948
H            4.51636083359236       -0.92875128667969        0.82309205801790
H            5.30919580709651        0.39124870337216       -0.03731951580401
H            4.48346801991713       -0.87951766665302       -0.93964864645455
H            3.14868907965762        1.16013898885941        0.90510729106915
H            3.11524985643533        1.20584018340806       -0.85773076891847
H            1.93227048903856       -0.98951310079906       -0.88564626663990
H            1.94999543889875       -1.01628762407971        0.87812733114578
H            0.60454922781879        1.08225255489563        0.92000354583883
H            0.58866816459120        1.10461366572352       -0.84353836190192
H           -0.58800400447015       -1.10282049300691       -0.84582029501418
H           -0.60514645637499       -1.08339808899875        0.91775043281466
H           -1.94956119852051        1.01684020238518        0.87712914551488
H           -1.93312142717576        0.98933145903940       -0.88665198929181
H           -3.11538229782022       -1.20718537638971       -0.85589737774813
H           -3.14808047166081       -1.15884007248958        0.90688664994345
H           -4.51242608308676        0.93522566062661        0.81831130597328
H           -5.30928336851466       -0.39179690415466       -0.02751897922239
H           -4.48809151669132        0.87167520983904       -0.94413216287688
26
 energy: -26.322617417074 gnorm: 0.001215684885 xtb: 6.6.1 (8d0f1dd)
C            4.44170674002650       -0.26942172930412       -0.03888054806282
C            3.15042300360910        0.53907130956796        0.00660050772074
C            1.91462488579098       -0.35813287780311        0.00615291669292
C            0.61812763747334        0.44850778920441        0.02906479855538
C           -0.61815125296296       -0.44820139545945        0.02794945166445
C           -1.91473521000697        0.35831079013320        0.00543427817665
C           -3.15036074447351       -0.53913396014739        0.00759286552915
C           -4.44187580701918        0.26894178335630       -0.03862241552227
H            4.51047404818322       -0.92850301850684        0.82379495007510
H            5.30614700145338        0.39058699333382       -0.03656407676032
H            4.47825970231442       -0.87977903826304       -0.93860498425000
H            3.14408542793632        1.16070713476364        0.90460714036353
H            3.11120189280870        1.20581123936822       -0.85766242350077
H            1.92995170424231       -0.98972702165316       -0.88511016313749
H            1.94698501322755       -1.01592846444521        0.87773898056586
H            0.60320845058227        1.08277944641291        0.91839678698397
H            0.58775775133263        1.10430472217960       -0.84422658874078
H           -0.58715308643459       -1.10264582473779       -0.84632587874308
H           -0.60379140483081       -1.08384313998428        0.91631431353909
H           -1.94652923280322        1.01656691365745        0.87669537252998
H           -1.93083047828925        0.98941426274559       -0.88615577249051
H           -3.11137186925829       -1.20729168161757       -0.85558149723192
H           -3.14346179776159       -1.15929704336624        0.90662061557872
H           -4.50697860886478        0.93453063150258        0.81933527549450
H           -5.30624277763263       -0.39107258605119       -0.02758683313422
H           -4.48236498864293        0.87247676511373       -0.94276807189587
26
 energy: -26.322620581756 gnorm: 0.000451166104 xtb: 6.6.1 (8d0f1dd)
C            4.44051172565658       -0.26930823840715       -0.03821638774163
C            3.14957973385110        0.53951367134164        0.00656154345569
C            1.91412816295825       -0.35769007740921        0.00601199254197
C            0.61778580476467        0.44864693261024        0.02824246387538
C           -0.61781436601358       -0.44836897812852        0.02721335908847
C           -1.91423784329236        0.35784694664481        0.00532914630793
C           -3.14953036117178       -0.53958008840137        0.00770699344712
C           -4.44066634094068        0.26886309823005       -0.03796856278319
H            4.50799739210021       -0.92842277684759        0.82465942658244
H            5.30601736132936        0.38927539935264       -0.03583250607073
H            4.47643275425807       -0.88019214648980       -0.93773031135538
H            3.14227246934575        1.16205629432160        0.90419252535727
H            3.10996892918927        1.20653075577880       -0.85773375928561
H            1.92938426426054       -0.99027437959512       -0.88479945358550
H            1.94581879666049       -1.01586760251368        0.87758988354183
H            0.60236033449064        1.08396317692638        0.91706694003230
H            0.58732009296725        1.10465764783568       -0.84512705215483
H           -0.58676989498491       -1.10316369202305       -0.84704344205148
H           -0.60290675577284       -1.08492809801030        0.91516182875783
H           -1.94533910273857        1.01659465966477        0.87649987326533
H           -1.93027518396474        0.98983404583230       -0.88588799640874
H           -3.11013992179477       -1.20811829416905       -0.85541815766479
H           -3.14170430452892       -1.16053992761924        0.90643490446797
H           -4.50489222843758        0.93399355283445        0.82053384101557
H           -5.30610984522763       -0.38972605396036       -0.02765320708736
H           -4.48008567296383        0.87343617220109       -0.94158488554787
