      -----------------------------------------------------------      
     |                   =====================                   |     
     |                           x T B                           |     
     |                   =====================                   |     
     |                         S. Grimme                         |     
     |          Mulliken Center for Theoretical Chemistry        |     
     |                    University of Bonn                     |     
      -----------------------------------------------------------      

   * xtb version 6.6.1 (8d0f1dd) compiled by 'stahn@M-Bot' on 2023-08-01

   xtb is free software: you can redistribute it and/or modify it under
   the terms of the GNU Lesser General Public License as published by
   the Free Software Foundation, either version 3 of the License, or
   (at your option) any later version.
   
   xtb is distributed in the hope that it will be useful,
   but WITHOUT ANY WARRANTY; without even the implied warranty of
   MERCHANTABILITY or FITNESS FOR A PARTICULAR PURPOSE.  See the
   GNU Lesser General Public License for more details.
   
   Cite this work as:
   * C. Bannwarth, E. Caldeweyher, S. Ehlert, A. Hansen, P. Pracht,
     J. Seibert, S. Spicher, S. Grimme, WIREs Comput. Mol. Sci., 2020, 11,
     e01493. DOI: 10.1002/wcms.1493
   
   for GFN2-xTB:
   * C. Bannwarth, S. Ehlert and S. Grimme., J. Chem. Theory Comput., 2019,
     15, 1652-1671. DOI: 10.1021/acs.jctc.8b01176
   for GFN1-xTB:
   * S. Grimme, C. Bannwarth, P. Shushkov, J. Chem. Theory Comput., 2017,
     13, 1989-2009. DOI: 10.1021/acs.jctc.7b00118
   for GFN0-xTB:
   * P. Pracht, E. Caldeweyher, S. Ehlert, S. Grimme, ChemRxiv, 2019, preprint.
     DOI: 10.26434/chemrxiv.8326202.v1
   for GFN-FF:
   * S. Spicher and S. Grimme, Angew. Chem. Int. Ed., 2020, 59, 15665-15673.
     DOI: 10.1002/anie.202004239
   
   for ALPB and GBSA implicit solvation:
   * S. Ehlert, M. Stahn, S. Spicher, S. Grimme, J. Chem. Theory Comput.,
     2021, 17, 4250-4261. DOI: 10.1021/acs.jctc.1c00471
   
   for DFT-D4:
   * E. Caldeweyher, C. Bannwarth and S. Grimme, J. Chem. Phys., 2017,
     147, 034112. DOI: 10.1063/1.4993215
   * E. Caldeweyher, S. Ehlert, A. Hansen, H. Neugebauer, S. Spicher,
     C. Bannwarth and S. Grimme, J. Chem. Phys., 2019, 150, 154122.
     DOI: 10.1063/1.5090222
   * E. Caldeweyher, J.-M. Mewes, S. Ehlert and S. Grimme, Phys. Chem. Chem. Phys.
     2020, 22, 8499-8512. DOI: 10.1039/D0CP00502A
   
   for sTDA-xTB:
   * S. Grimme and C. Bannwarth, J. Chem. Phys., 2016, 145, 054103.
     DOI: 10.1063/1.4959605
   
   in the mass-spec context:
   * V. Asgeirsson, C. Bauer and S. Grimme, Chem. Sci., 2017, 8, 4879.
     DOI: 10.1039/c7sc00601b
   * J. Koopman and S. Grimme, ACS Omega 2019, 4, 12, 15120-15133.
     DOI: 10.1021/acsomega.9b02011
   
   for metadynamics refer to:
   * S. Grimme, J. Chem. Theory Comput., 2019, 155, 2847-2862
     DOI: 10.1021/acs.jctc.9b00143
   
   for SPH calculations refer to:
   * S. Spicher and S. Grimme, J. Chem. Theory Comput., 2021, 17, 1701-1714
     DOI: 10.1021/acs.jctc.0c01306
   
   with help from (in alphabetical order)
   P. Atkinson, C. Bannwarth, F. Bohle, G. Brandenburg, E. Caldeweyher
   M. Checinski, S. Dohm, S. Ehlert, S. Ehrlich, I. Gerasimov, C. Hölzer
   A. Katbashev, J. Koopman, C. Lavigne, S. Lehtola, F. März, M. Müller,
   F. Musil, H. Neugebauer, J. Pisarek, C. Plett, P. Pracht, F. Pultar,
   J. Seibert, P. Shushkov, S. Spicher, M. Stahn, M. Steiner, T. Strunk,
   J. Stückrath, T. Rose, and J. Unsleber
   
 * started run on 2024/04/23 at 12:10:28.436     

           -------------------------------------------------
          |                Calculation Setup                |
           -------------------------------------------------

          program call               : xtb folded.xyz --gfn 2 --ohess -P 4
          coordinate file            : folded.xyz
          omp threads                :                     4

   ID    Z sym.   atoms
    1    6 C      1-12
    2    1 H      13-38

           -------------------------------------------------
          |                 G F N 2 - x T B                 |
           -------------------------------------------------

        Reference                      10.1021/acs.jctc.8b01176
      * Hamiltonian:
        H0-scaling (s, p, d)           1.850000    2.230000    2.230000
        zeta-weighting                 0.500000
      * Dispersion:
        s8                             2.700000
        a1                             0.520000
        a2                             5.000000
        s9                             5.000000
      * Repulsion:
        kExp                           1.500000    1.000000
        rExp                           1.000000
      * Coulomb:
        alpha                          2.000000
        third order                    shell-resolved
        anisotropic                    true
        a3                             3.000000
        a5                             4.000000
        cn-shift                       1.200000
        cn-exp                         4.000000
        max-rad                        5.000000


          ...................................................
          :                      SETUP                      :
          :.................................................:
          :  # basis functions                  74          :
          :  # atomic orbitals                  74          :
          :  # shells                           50          :
          :  # electrons                        74          :
          :  max. iterations                   250          :
          :  Hamiltonian                  GFN2-xTB          :
          :  restarted?                      false          :
          :  GBSA solvation                  false          :
          :  PC potential                    false          :
          :  electronic temp.          300.0000000     K    :
          :  accuracy                    1.0000000          :
          :  -> integral cutoff          0.2500000E+02      :
          :  -> integral neglect         0.1000000E-07      :
          :  -> SCF convergence          0.1000000E-05 Eh   :
          :  -> wf. convergence          0.1000000E-03 e    :
          :  Broyden damping             0.4000000          :
          ...................................................

 iter      E             dE          RMSdq      gap      omega  full diag
   1    -39.4397908 -0.394398E+02  0.249E+00   12.95       0.0  T
   2    -39.5394145 -0.996236E-01  0.134E+00   12.69       1.0  T
   3    -39.5405807 -0.116620E-02  0.710E-01   12.66       1.0  T
   4    -39.5408763 -0.295626E-03  0.856E-02   12.66       1.0  T
   5    -39.5408855 -0.919565E-05  0.435E-02   12.66       1.0  T
   6    -39.5408875 -0.202403E-05  0.440E-03   12.66       3.7  T
   7    -39.5408876 -0.112957E-06  0.151E-03   12.66      10.7  T
   8    -39.5408876 -0.150503E-07  0.303E-04   12.66      53.5  T
   9    -39.5408876 -0.260819E-09  0.139E-04   12.66     116.5  T

   *** convergence criteria satisfied after 9 iterations ***

         #    Occupation            Energy/Eh            Energy/eV
      -------------------------------------------------------------
         1        2.0000           -0.6227236             -16.9452
       ...           ...                  ...                  ...
        31        2.0000           -0.4248159             -11.5598
        32        2.0000           -0.4238114             -11.5325
        33        2.0000           -0.4200166             -11.4292
        34        2.0000           -0.4159849             -11.3195
        35        2.0000           -0.4141706             -11.2702
        36        2.0000           -0.4074147             -11.0863
        37        2.0000           -0.4062094             -11.0535 (HOMO)
        38                          0.0591819               1.6104 (LUMO)
        39                          0.0665832               1.8118
        40                          0.0776147               2.1120
        41                          0.0857209               2.3326
        42                          0.0872593               2.3744
       ...                                ...                  ...
        74                          0.3296878               8.9713
      -------------------------------------------------------------
                  HL-Gap            0.4653913 Eh           12.6639 eV
             Fermi-level           -0.1735138 Eh           -4.7216 eV

 SCC (total)                   0 d,  0 h,  0 min,  0.048 sec
 SCC setup                      ...        0 min,  0.001 sec (  1.651%)
 Dispersion                     ...        0 min,  0.000 sec (  0.804%)
 classical contributions        ...        0 min,  0.000 sec (  0.066%)
 integral evaluation            ...        0 min,  0.003 sec (  5.378%)
 iterations                     ...        0 min,  0.037 sec ( 77.278%)
 molecular gradient             ...        0 min,  0.007 sec ( 14.017%)
 printout                       ...        0 min,  0.000 sec (  0.727%)

         :::::::::::::::::::::::::::::::::::::::::::::::::::::
         ::                     SUMMARY                     ::
         :::::::::::::::::::::::::::::::::::::::::::::::::::::
         :: total energy             -38.973585350635 Eh    ::
         :: gradient norm              0.031641749061 Eh/a0 ::
         :: HOMO-LUMO gap             12.663942213749 eV    ::
         ::.................................................::
         :: SCC energy               -39.540887645452 Eh    ::
         :: -> isotropic ES            0.006107211390 Eh    ::
         :: -> anisotropic ES          0.013141400219 Eh    ::
         :: -> anisotropic XC          0.023172138974 Eh    ::
         :: -> dispersion             -0.027369468938 Eh    ::
         :: repulsion energy           0.566710950522 Eh    ::
         :: add. restraining           0.000000000000 Eh    ::
         :: total charge              -0.000000000000 e     ::
         :::::::::::::::::::::::::::::::::::::::::::::::::::::

      ----------------------------------------------------------- 
     |                   =====================                   |
     |                        A N C O P T                        |
     |                   =====================                   |
     |               Approximate Normal Coordinate               |
     |                Rational Function Optimizer                |
      ----------------------------------------------------------- 

          ...................................................
          :                      SETUP                      :
          :.................................................:
          :   optimization level            normal          :
          :   max. optcycles                   200          :
          :   ANC micro-cycles                  20          :
          :   degrees of freedom               108          :
          :.................................................:
          :   RF solver                   davidson          :
          :   write xtbopt.log                true          :
          :   linear?                        false          :
          :   energy convergence         0.5000000E-05 Eh   :
          :   grad. convergence          0.1000000E-02 Eh/α :
          :   maxmium RF displ.          2.0000000          :
          :   Hlow (freq-cutoff)         0.2000000E-01      :
          :   Hmax (freq-cutoff)         5.0000000          :
          :   S6 in model hess.         70.0000000          :
          ...................................................

generating ANC from model Hessian ...
Using Lindh-Hessian (1995)
 Shifting diagonal of input Hessian by   1.927496249831598E-002
 Lowest  eigenvalues of input Hessian
    0.000000    0.000000    0.000000    0.000000    0.000000    0.000000
    0.020000    0.020171    0.020618    0.022962    0.023534    0.023946
    0.024572    0.025640    0.026383    0.028745    0.031085    0.031750
 Highest eigenvalues
    1.223815    1.248246    1.251606    1.293817    1.307390    1.316204
 

........................................................................
.............................. CYCLE    1 ..............................
........................................................................

 iter      E             dE          RMSdq      gap      omega  full diag
   1    -39.5408876 -0.395409E+02  0.224E-05   12.66       0.0  T
   2    -39.5408876 -0.188294E-11  0.128E-05   12.66    1269.5  T
   3    -39.5408876 -0.497380E-13  0.448E-06   12.66    3617.6  T
     SCC iter.                  ...        0 min,  0.006 sec
     gradient                   ...        0 min,  0.007 sec
 * total energy  :   -38.9735854 Eh     change       -0.3637979E-10 Eh
   gradient norm :     0.0316414 Eh/α   predicted     0.0000000E+00 (-100.00%)
   displ. norm   :     0.1849751 α      lambda       -0.3386229E-02
   maximum displ.:     0.0707457 α      in ANC's #47, #31, #48, ...

........................................................................
.............................. CYCLE    2 ..............................
........................................................................

 iter      E             dE          RMSdq      gap      omega  full diag
   1    -39.5527252 -0.395527E+02  0.144E-01   12.82       0.0  T
   2    -39.5527304 -0.520524E-05  0.830E-02   12.82       1.0  T
   3    -39.5527312 -0.813371E-06  0.400E-03   12.82       4.1  T
   4    -39.5527312 -0.539537E-07  0.134E-03   12.82      12.1  T
   5    -39.5527312 -0.276089E-08  0.666E-04   12.82      24.3  T
   6    -39.5527312 -0.785867E-09  0.868E-05   12.82     187.0  T
     SCC iter.                  ...        0 min,  0.012 sec
     gradient                   ...        0 min,  0.005 sec
 * total energy  :   -38.9758212 Eh     change       -0.2235822E-02 Eh
   gradient norm :     0.0137219 Eh/α   predicted    -0.1751051E-02 ( -21.68%)
   displ. norm   :     0.0984238 α      lambda       -0.6285673E-03
   maximum displ.:     0.0318519 α      in ANC's #47, #48, #19, ...

........................................................................
.............................. CYCLE    3 ..............................
........................................................................

 iter      E             dE          RMSdq      gap      omega  full diag
   1    -39.5603195 -0.395603E+02  0.671E-02   12.89       0.0  T
   2    -39.5603224 -0.291112E-05  0.380E-02   12.89       1.0  T
   3    -39.5603226 -0.159143E-06  0.357E-03   12.89       4.5  T
   4    -39.5603226 -0.204886E-07  0.678E-04   12.89      23.9  T
   5    -39.5603226 -0.134528E-08  0.377E-04   12.89      43.0  T
     SCC iter.                  ...        0 min,  0.009 sec
     gradient                   ...        0 min,  0.006 sec
 * total energy  :   -38.9761640 Eh     change       -0.3428725E-03 Eh
   gradient norm :     0.0025001 Eh/α   predicted    -0.3173344E-03 (  -7.45%)
   displ. norm   :     0.0345944 α      lambda       -0.3393921E-04
   maximum displ.:     0.0188169 α      in ANC's #10, #9, #6, ...

........................................................................
.............................. CYCLE    4 ..............................
........................................................................

 iter      E             dE          RMSdq      gap      omega  full diag
   1    -39.5612496 -0.395612E+02  0.690E-03   12.89       0.0  T
   2    -39.5612497 -0.103563E-06  0.394E-03   12.89       4.1  T
   3    -39.5612497 -0.356369E-08  0.837E-04   12.89      19.4  T
   4    -39.5612497 -0.102750E-08  0.162E-04   12.89      99.9  T
     SCC iter.                  ...        0 min,  0.014 sec
     gradient                   ...        0 min,  0.006 sec
 * total energy  :   -38.9761924 Eh     change       -0.2838326E-04 Eh
   gradient norm :     0.0009014 Eh/α   predicted    -0.1787650E-04 ( -37.02%)
   displ. norm   :     0.1226957 α      lambda       -0.5422648E-04
   maximum displ.:     0.0673771 α      in ANC's #10, #6, #9, ...

........................................................................
.............................. CYCLE    5 ..............................
........................................................................

 iter      E             dE          RMSdq      gap      omega  full diag
   1    -39.5618358 -0.395618E+02  0.170E-02   12.89       0.0  T
   2    -39.5618361 -0.313559E-06  0.101E-02   12.89       1.6  T
   3    -39.5618361 -0.337930E-07  0.135E-03   12.89      12.1  T
   4    -39.5618361 -0.942111E-08  0.480E-04   12.89      33.8  T
   5    -39.5618361 -0.137945E-08  0.126E-04   12.89     128.5  T
     SCC iter.                  ...        0 min,  0.008 sec
     gradient                   ...        0 min,  0.007 sec
 * total energy  :   -38.9762310 Eh     change       -0.3856813E-04 Eh
   gradient norm :     0.0034685 Eh/α   predicted    -0.2735605E-04 ( -29.07%)
   displ. norm   :     0.0190006 α      lambda       -0.1277988E-04
   maximum displ.:     0.0107186 α      in ANC's #6, #9, #10, ...

........................................................................
.............................. CYCLE    6 ..............................
........................................................................

 iter      E             dE          RMSdq      gap      omega  full diag
   1    -39.5612412 -0.395612E+02  0.374E-03   12.89       0.0  T
   2    -39.5612413 -0.443136E-07  0.209E-03   12.89       7.8  T
   3    -39.5612413 -0.658943E-09  0.561E-04   12.89      28.9  T
   4    -39.5612413 -0.218719E-09  0.684E-05   12.89     237.3  T
     SCC iter.                  ...        0 min,  0.003 sec
     gradient                   ...        0 min,  0.006 sec
 * total energy  :   -38.9762417 Eh     change       -0.1066808E-04 Eh
   gradient norm :     0.0020120 Eh/α   predicted    -0.6398966E-05 ( -40.02%)
   displ. norm   :     0.0556008 α      lambda       -0.2165445E-04
   maximum displ.:     0.0328805 α      in ANC's #6, #1, #9, ...

........................................................................
.............................. CYCLE    7 ..............................
........................................................................

 iter      E             dE          RMSdq      gap      omega  full diag
   1    -39.5602122 -0.395602E+02  0.855E-03   12.89       0.0  T
   2    -39.5602123 -0.156488E-06  0.492E-03   12.89       3.3  T
   3    -39.5602123 -0.260599E-08  0.102E-03   12.89      16.0  T
   4    -39.5602123 -0.134717E-08  0.149E-04   12.89     108.9  T
   5    -39.5602123 -0.201474E-09  0.705E-05   12.89     230.1  T
     SCC iter.                  ...        0 min,  0.008 sec
     gradient                   ...        0 min,  0.014 sec
 * total energy  :   -38.9762544 Eh     change       -0.1270483E-04 Eh
   gradient norm :     0.0009053 Eh/α   predicted    -0.1087446E-04 ( -14.41%)
   displ. norm   :     0.0423442 α      lambda       -0.4719006E-05
   maximum displ.:     0.0257230 α      in ANC's #6, #1, #3, ...

........................................................................
.............................. CYCLE    8 ..............................
........................................................................

 iter      E             dE          RMSdq      gap      omega  full diag
   1    -39.5600643 -0.395601E+02  0.543E-03   12.89       0.0  T
   2    -39.5600643 -0.788781E-08  0.322E-03   12.89       5.0  T
   3    -39.5600643 -0.699181E-09  0.182E-04   12.89      89.0  T
   4    -39.5600643 -0.322387E-09  0.752E-05   12.89     215.8  T
     SCC iter.                  ...        0 min,  0.008 sec
     gradient                   ...        0 min,  0.009 sec
 * total energy  :   -38.9762602 Eh     change       -0.5837504E-05 Eh
   gradient norm :     0.0014412 Eh/α   predicted    -0.2362514E-05 ( -59.53%)
   displ. norm   :     0.1387999 α      lambda       -0.1663734E-04
   maximum displ.:     0.0823657 α      in ANC's #6, #1, #3, ...

........................................................................
.............................. CYCLE    9 ..............................
........................................................................

 iter      E             dE          RMSdq      gap      omega  full diag
   1    -39.5602005 -0.395602E+02  0.178E-02   12.89       0.0  T
   2    -39.5602006 -0.304546E-07  0.106E-02   12.89       1.5  T
   3    -39.5602006 -0.733090E-08  0.456E-04   12.89      35.6  T
   4    -39.5602006 -0.197679E-08  0.232E-04   12.89      70.0  T
     SCC iter.                  ...        0 min,  0.009 sec
     gradient                   ...        0 min,  0.009 sec
 * total energy  :   -38.9762784 Eh     change       -0.1816337E-04 Eh
   gradient norm :     0.0012718 Eh/α   predicted    -0.8390290E-05 ( -53.81%)
   displ. norm   :     0.1597635 α      lambda       -0.1502129E-04
   maximum displ.:     0.0908318 α      in ANC's #1, #6, #3, ...

........................................................................
.............................. CYCLE   10 ..............................
........................................................................

 iter      E             dE          RMSdq      gap      omega  full diag
   1    -39.5603731 -0.395604E+02  0.204E-02   12.89       0.0  T
   2    -39.5603731 -0.386400E-07  0.121E-02   12.89       1.3  T
   3    -39.5603731 -0.976370E-08  0.489E-04   12.89      33.2  T
   4    -39.5603731 -0.165311E-08  0.250E-04   12.89      64.9  T
     SCC iter.                  ...        0 min,  0.012 sec
     gradient                   ...        0 min,  0.011 sec
 * total energy  :   -38.9762948 Eh     change       -0.1645627E-04 Eh
   gradient norm :     0.0007824 Eh/α   predicted    -0.7597343E-05 ( -53.83%)
   displ. norm   :     0.1785462 α      lambda       -0.1517328E-04
   maximum displ.:     0.1070423 α      in ANC's #1, #6, #3, ...

........................................................................
.............................. CYCLE   11 ..............................
........................................................................

 iter      E             dE          RMSdq      gap      omega  full diag
   1    -39.5606308 -0.395606E+02  0.223E-02   12.89       0.0  T
   2    -39.5606308 -0.403623E-07  0.132E-02   12.89       1.2  T
   3    -39.5606308 -0.117420E-07  0.501E-04   12.89      32.4  T
   4    -39.5606308 -0.131225E-08  0.259E-04   12.89      62.6  T
     SCC iter.                  ...        0 min,  0.006 sec
     gradient                   ...        0 min,  0.027 sec
 * total energy  :   -38.9763122 Eh     change       -0.1732837E-04 Eh
   gradient norm :     0.0007079 Eh/α   predicted    -0.7695303E-05 ( -55.59%)
   displ. norm   :     0.2347797 α      lambda       -0.1995218E-04
   maximum displ.:     0.1463759 α      in ANC's #1, #6, #3, ...

........................................................................
.............................. CYCLE   12 ..............................
........................................................................

 iter      E             dE          RMSdq      gap      omega  full diag
   1    -39.5607641 -0.395608E+02  0.285E-02   12.90       0.0  T
   2    -39.5607642 -0.535436E-07  0.169E-02   12.90       1.0  T
   3    -39.5607642 -0.193843E-07  0.614E-04   12.90      26.4  T
   4    -39.5607642 -0.164548E-08  0.321E-04   12.90      50.5  T
     SCC iter.                  ...        0 min,  0.008 sec
     gradient                   ...        0 min,  0.008 sec
 * total energy  :   -38.9763345 Eh     change       -0.2234080E-04 Eh
   gradient norm :     0.0010310 Eh/α   predicted    -0.1022184E-04 ( -54.25%)
   displ. norm   :     0.2461881 α      lambda       -0.2123968E-04
   maximum displ.:     0.1590131 α      in ANC's #1, #6, #2, ...

........................................................................
.............................. CYCLE   13 ..............................
........................................................................

 iter      E             dE          RMSdq      gap      omega  full diag
   1    -39.5608641 -0.395609E+02  0.286E-02   12.90       0.0  T
   2    -39.5608642 -0.593855E-07  0.170E-02   12.90       1.0  T
   3    -39.5608642 -0.209711E-07  0.636E-04   12.90      25.5  T
   4    -39.5608642 -0.145346E-08  0.315E-04   12.90      51.4  T
     SCC iter.                  ...        0 min,  0.009 sec
     gradient                   ...        0 min,  0.007 sec
 * total energy  :   -38.9763573 Eh     change       -0.2277814E-04 Eh
   gradient norm :     0.0009735 Eh/α   predicted    -0.1090615E-04 ( -52.12%)
   displ. norm   :     0.1944274 α      lambda       -0.1543789E-04
   maximum displ.:     0.1306618 α      in ANC's #1, #2, #6, ...

........................................................................
.............................. CYCLE   14 ..............................
........................................................................

 iter      E             dE          RMSdq      gap      omega  full diag
   1    -39.5607801 -0.395608E+02  0.219E-02   12.91       0.0  T
   2    -39.5607802 -0.495411E-07  0.131E-02   12.91       1.2  T
   3    -39.5607802 -0.128820E-07  0.550E-04   12.91      29.5  T
   4    -39.5607802 -0.185894E-08  0.270E-04   12.91      60.0  T
     SCC iter.                  ...        0 min,  0.010 sec
     gradient                   ...        0 min,  0.013 sec
 * total energy  :   -38.9763733 Eh     change       -0.1605067E-04 Eh
   gradient norm :     0.0005808 Eh/α   predicted    -0.7848763E-05 ( -51.10%)
   displ. norm   :     0.1223561 α      lambda       -0.9535458E-05
   maximum displ.:     0.0868622 α      in ANC's #1, #2, #3, ...

........................................................................
.............................. CYCLE   15 ..............................
........................................................................

 iter      E             dE          RMSdq      gap      omega  full diag
   1    -39.5608292 -0.395608E+02  0.129E-02   12.90       0.0  T
   2    -39.5608292 -0.225047E-07  0.766E-03   12.90       2.1  T
   3    -39.5608292 -0.564612E-08  0.379E-04   12.90      42.8  T
   4    -39.5608292 -0.642430E-09  0.171E-04   12.90      95.0  T
     SCC iter.                  ...        0 min,  0.003 sec
     gradient                   ...        0 min,  0.005 sec
 * total energy  :   -38.9763831 Eh     change       -0.9781870E-05 Eh
   gradient norm :     0.0004790 Eh/α   predicted    -0.4800949E-05 ( -50.92%)
   displ. norm   :     0.1143244 α      lambda       -0.7303768E-05
   maximum displ.:     0.0848089 α      in ANC's #1, #2, #3, ...

........................................................................
.............................. CYCLE   16 ..............................
........................................................................

 iter      E             dE          RMSdq      gap      omega  full diag
   1    -39.5604275 -0.395604E+02  0.120E-02   12.90       0.0  T
   2    -39.5604276 -0.236653E-07  0.713E-03   12.90       2.3  T
   3    -39.5604276 -0.371426E-08  0.366E-04   12.90      44.3  T
   4    -39.5604276 -0.141270E-08  0.166E-04   12.90      97.5  T
     SCC iter.                  ...        0 min,  0.009 sec
     gradient                   ...        0 min,  0.006 sec
 * total energy  :   -38.9763906 Eh     change       -0.7480711E-05 Eh
   gradient norm :     0.0006260 Eh/α   predicted    -0.3677799E-05 ( -50.84%)
   displ. norm   :     0.0824145 α      lambda       -0.9124654E-05
   maximum displ.:     0.0509083 α      in ANC's #1, #2, #4, ...

........................................................................
.............................. CYCLE   17 ..............................
........................................................................

 iter      E             dE          RMSdq      gap      omega  full diag
   1    -39.5612143 -0.395612E+02  0.981E-03   12.90       0.0  T
   2    -39.5612144 -0.431900E-07  0.578E-03   12.90       2.8  T
   3    -39.5612144 -0.469237E-08  0.416E-04   12.90      39.0  T
   4    -39.5612144 -0.620460E-09  0.176E-04   12.90      92.2  T
     SCC iter.                  ...        0 min,  0.004 sec
     gradient                   ...        0 min,  0.005 sec
 * total energy  :   -38.9763981 Eh     change       -0.7539195E-05 Eh
   gradient norm :     0.0009842 Eh/α   predicted    -0.4577517E-05 ( -39.28%)
   displ. norm   :     0.0796199 α      lambda       -0.8832087E-05
   maximum displ.:     0.0589770 α      in ANC's #1, #2, #4, ...

........................................................................
.............................. CYCLE   18 ..............................
........................................................................

 iter      E             dE          RMSdq      gap      omega  full diag
   1    -39.5604764 -0.395605E+02  0.840E-03   12.89       0.0  T
   2    -39.5604764 -0.268560E-07  0.494E-03   12.89       3.3  T
   3    -39.5604764 -0.248309E-08  0.390E-04   12.89      41.6  T
   4    -39.5604764 -0.125689E-08  0.150E-04   12.89     108.4  T
     SCC iter.                  ...        0 min,  0.003 sec
     gradient                   ...        0 min,  0.008 sec
 * total energy  :   -38.9764075 Eh     change       -0.9377741E-05 Eh
   gradient norm :     0.0006187 Eh/α   predicted    -0.4429010E-05 ( -52.77%)
   displ. norm   :     0.0838601 α      lambda       -0.9828604E-05
   maximum displ.:     0.0509259 α      in ANC's #1, #2, #6, ...

........................................................................
.............................. CYCLE   19 ..............................
........................................................................

 iter      E             dE          RMSdq      gap      omega  full diag
   1    -39.5604374 -0.395604E+02  0.958E-03   12.89       0.0  T
   2    -39.5604374 -0.141483E-07  0.568E-03   12.89       2.9  T
   3    -39.5604374 -0.300518E-08  0.306E-04   12.89      53.0  T
   4    -39.5604374 -0.819952E-09  0.147E-04   12.89     110.5  T
     SCC iter.                  ...        0 min,  0.004 sec
     gradient                   ...        0 min,  0.007 sec
 * total energy  :   -38.9764180 Eh     change       -0.1048132E-04 Eh
   gradient norm :     0.0004998 Eh/α   predicted    -0.4932357E-05 ( -52.94%)
   displ. norm   :     0.0833061 α      lambda       -0.6838774E-05
   maximum displ.:     0.0574022 α      in ANC's #1, #2, #4, ...

........................................................................
.............................. CYCLE   20 ..............................
........................................................................

 iter      E             dE          RMSdq      gap      omega  full diag
   1    -39.5605969 -0.395606E+02  0.831E-03   12.90       0.0  T
   2    -39.5605970 -0.110663E-07  0.492E-03   12.90       3.3  T
   3    -39.5605970 -0.250687E-08  0.270E-04   12.90      60.0  T
   4    -39.5605970 -0.649003E-09  0.132E-04   12.90     123.1  T
     SCC iter.                  ...        0 min,  0.004 sec
     gradient                   ...        0 min,  0.004 sec
 * total energy  :   -38.9764253 Eh     change       -0.7346769E-05 Eh
   gradient norm :     0.0004385 Eh/α   predicted    -0.3434865E-05 ( -53.25%)
   displ. norm   :     0.0772315 α      lambda       -0.4598140E-05
   maximum displ.:     0.0584102 α      in ANC's #1, #2, #4, ...
 * RMSD in coord.:     0.2903486 α      energy gain  -0.2839981E-02 Eh

generating ANC from model Hessian ...
Using Lindh-Hessian (1995)
 Shifting diagonal of input Hessian by   1.938043390040846E-002
 Lowest  eigenvalues of input Hessian
    0.000000    0.000000    0.000000    0.000000    0.000000    0.000000
    0.020000    0.020335    0.020798    0.023237    0.023698    0.024065
    0.024759    0.025728    0.026420    0.028979    0.031238    0.032156
 Highest eigenvalues
    1.232662    1.252305    1.260076    1.296230    1.308749    1.320158
 

........................................................................
.............................. CYCLE   21 ..............................
........................................................................

 iter      E             dE          RMSdq      gap      omega  full diag
   1    -39.5607602 -0.395608E+02  0.672E-03   12.90       0.0  T
   2    -39.5607603 -0.675301E-08  0.399E-03   12.90       4.1  T
   3    -39.5607603 -0.157589E-08  0.187E-04   12.90      86.7  T
   4    -39.5607603 -0.237605E-09  0.961E-05   12.90     168.8  T
     SCC iter.                  ...        0 min,  0.004 sec
     gradient                   ...        0 min,  0.006 sec
 * total energy  :   -38.9764309 Eh     change       -0.5530730E-05 Eh
   gradient norm :     0.0003862 Eh/α   predicted     0.0000000E+00 (-100.00%)
   displ. norm   :     0.0107881 α      lambda       -0.2014321E-06
   maximum displ.:     0.0056709 α      in ANC's #11, #1, #15, ...

........................................................................
.............................. CYCLE   22 ..............................
........................................................................

 iter      E             dE          RMSdq      gap      omega  full diag
   1    -39.5608449 -0.395608E+02  0.191E-03   12.90       0.0  T
   2    -39.5608449 -0.122494E-08  0.112E-03   12.90      14.4  T
   3    -39.5608449 -0.168100E-09  0.939E-05   12.90     172.8  T
   4    -39.5608449 -0.800640E-10  0.371E-05   12.90     437.8  T
     SCC iter.                  ...        0 min,  0.006 sec
     gradient                   ...        0 min,  0.005 sec
 * total energy  :   -38.9764331 Eh     change       -0.2191221E-05 Eh
   gradient norm :     0.0001948 Eh/α   predicted    -0.8614657E-06 ( -60.69%)
   displ. norm   :     0.0395311 α      lambda       -0.4476065E-05
   maximum displ.:     0.0181532 α      in ANC's #11, #1, #15, ...

   *** GEOMETRY OPTIMIZATION CONVERGED AFTER 22 ITERATIONS ***

------------------------------------------------------------------------
 total energy gain   :        -0.0028477 Eh       -1.7870 kcal/mol
 total RMSD          :         0.2908060 a0        0.1539 Å
 total power (kW/mol):        -0.3398474 (step)  -15.6743 (real)
------------------------------------------------------------------------

 ANCopt (total)                0 d,  0 h,  0 min,  0.477 sec
 optimizer setup                ...        0 min,  0.001 sec (  0.306%)
 model hessian                  ...        0 min,  0.057 sec ( 12.025%)
 ANC generation                 ...        0 min,  0.003 sec (  0.659%)
 coordinate transformation      ...        0 min,  0.000 sec (  0.086%)
 single point calculation       ...        0 min,  0.399 sec ( 83.667%)
 optimization log               ...        0 min,  0.003 sec (  0.584%)
 hessian update                 ...        0 min,  0.008 sec (  1.582%)
 rational function              ...        0 min,  0.002 sec (  0.489%)

================
 final structure:
================
38
 xtb: 6.6.1 (8d0f1dd)
C            3.02335892126411        2.71143933502401       -0.65182991510513
C            2.94182183132373        1.60388428160749        0.39165029850271
C            2.37284260424936        0.31346049665047       -0.19346600038434
C            2.26298347525920       -0.78839469444033        0.85779876113294
C            1.78889434397813       -2.12945054697301        0.29325393234151
C            0.39804679266911       -2.10258560902050       -0.34336008574065
C           -0.70658675758446       -1.74794133836970        0.64887810459737
C           -2.10868139312764       -1.82403276459625        0.04328897133439
C           -2.36342555900501       -0.85319469473650       -1.11340482759999
C           -2.07957679982626        0.61687576265803       -0.80140322469740
C           -2.92538531614667        1.17871915723440        0.33856975251584
C           -2.65881417779011        2.66464219426739        0.54821072430790
H            2.03390376491673        2.94407081168411       -1.04041135478233
H            3.65304093170660        2.40471267697946       -1.48436827015177
H            3.44325470974418        3.61680930607699       -0.21945685012671
H            3.93854464195778        1.41028326716342        0.79494204150816
H            2.30979462561452        1.93266261151727        1.22038852631689
H            3.01481549942789       -0.02762275237505       -1.00937235315890
H            1.38836896436838        0.52601027874163       -0.61374491268464
H            3.24686559598787       -0.93845808493493        1.31050144271794
H            1.58981424306853       -0.46377066109454        1.65335333527262
H            2.50790470657532       -2.46558508442391       -0.45844051425410
H            1.79157549438739       -2.86477401649320        1.10225038745119
H            0.19139897244724       -3.09224672041234       -0.75970042468672
H            0.39535837386686       -1.39465009571542       -1.17182484628265
H           -0.65727010313119       -2.44336113475583        1.49131980260384
H           -0.54134971204498       -0.74615113692393        1.04403377353937
H           -2.83914310096883       -1.63748162968339        0.83341653356295
H           -2.28165357200975       -2.83955462225367       -0.32302701971429
H           -3.41010450852786       -0.95221977102871       -1.41333349834548
H           -1.75387294810107       -1.14903526446811       -1.96990169497914
H           -1.02321495346861        0.74672760099277       -0.55989418094526
H           -2.27753253997391        1.20094817683333       -1.70449484111034
H           -2.70175259338929        0.64412725209271        1.26312850541488
H           -3.98344596008620        1.02612462615770        0.11300178890907
H           -2.90807256061370        3.22900554979113       -0.34807165145194
H           -1.60813600154475        2.83412827006573        0.77587282818341
H           -3.25411693547278        3.05014596716140        1.37287295598907
           -------------------------------------------------
          |                Final Singlepoint                |
           -------------------------------------------------

          ...................................................
          :                      SETUP                      :
          :.................................................:
          :  # basis functions                  74          :
          :  # atomic orbitals                  74          :
          :  # shells                           50          :
          :  # electrons                        74          :
          :  max. iterations                   250          :
          :  Hamiltonian                  GFN2-xTB          :
          :  restarted?                      false          :
          :  GBSA solvation                  false          :
          :  PC potential                    false          :
          :  electronic temp.          300.0000000     K    :
          :  accuracy                    1.0000000          :
          :  -> integral cutoff          0.2500000E+02      :
          :  -> integral neglect         0.1000000E-07      :
          :  -> SCF convergence          0.1000000E-05 Eh   :
          :  -> wf. convergence          0.1000000E-03 e    :
          :  Broyden damping             0.4000000          :
          ...................................................

 iter      E             dE          RMSdq      gap      omega  full diag
   1    -39.5608449 -0.395608E+02  0.817E-06   12.90       0.0  T
   2    -39.5608449 -0.198952E-12  0.463E-06   12.90    3502.7  T
   3    -39.5608449 -0.284217E-13  0.178E-06   12.90    9113.0  T

   *** convergence criteria satisfied after 3 iterations ***

         #    Occupation            Energy/Eh            Energy/eV
      -------------------------------------------------------------
         1        2.0000           -0.6234782             -16.9657
       ...           ...                  ...                  ...
        31        2.0000           -0.4248911             -11.5619
        32        2.0000           -0.4228059             -11.5051
        33        2.0000           -0.4194161             -11.4129
        34        2.0000           -0.4162526             -11.3268
        35        2.0000           -0.4139505             -11.2642
        36        2.0000           -0.4091625             -11.1339
        37        2.0000           -0.4074501             -11.0873 (HOMO)
        38                          0.0666525               1.8137 (LUMO)
        39                          0.0739249               2.0116
        40                          0.0866018               2.3566
        41                          0.0936181               2.5475
        42                          0.0977054               2.6587
       ...                                ...                  ...
        74                          0.3354461               9.1280
      -------------------------------------------------------------
                  HL-Gap            0.4741027 Eh           12.9010 eV
             Fermi-level           -0.1703988 Eh           -4.6368 eV

 SCC (total)                   0 d,  0 h,  0 min,  0.018 sec
 SCC setup                      ...        0 min,  0.001 sec (  3.933%)
 Dispersion                     ...        0 min,  0.004 sec ( 19.836%)
 classical contributions        ...        0 min,  0.001 sec (  4.285%)
 integral evaluation            ...        0 min,  0.002 sec ( 10.308%)
 iterations                     ...        0 min,  0.004 sec ( 21.937%)
 molecular gradient             ...        0 min,  0.007 sec ( 36.570%)
 printout                       ...        0 min,  0.001 sec (  2.893%)

         :::::::::::::::::::::::::::::::::::::::::::::::::::::
         ::                     SUMMARY                     ::
         :::::::::::::::::::::::::::::::::::::::::::::::::::::
         :: total energy             -38.976433053786 Eh    ::
         :: gradient norm              0.000194711043 Eh/a0 ::
         :: HOMO-LUMO gap             12.900989828134 eV    ::
         ::.................................................::
         :: SCC energy               -39.560844912282 Eh    ::
         :: -> isotropic ES            0.006522264649 Eh    ::
         :: -> anisotropic ES          0.012600009931 Eh    ::
         :: -> anisotropic XC          0.023393409094 Eh    ::
         :: -> dispersion             -0.027064223491 Eh    ::
         :: repulsion energy           0.583867941679 Eh    ::
         :: add. restraining           0.000000000000 Eh    ::
         :: total charge               0.000000000000 e     ::
         :::::::::::::::::::::::::::::::::::::::::::::::::::::

           ------------------------------------------------- 
          |                Numerical Hessian                |
           ------------------------------------------------- 
step length          :   0.00500
SCC accuracy         :   0.30000
Hessian scale factor :   1.00000
frozen atoms in %    :   0.00000    0
RMS gradient         :   0.00019
estimated CPU  time      0.26 min
estimated wall time      0.09 min

writing file <hessian>.

 projected vibrational frequencies (cm⁻¹)
eigval :       -0.00    -0.00     0.00     0.00     0.00     0.00
eigval :       17.25    19.93    38.36    60.63    79.19    91.53
eigval :      107.54   153.90   167.09   212.40   227.82   236.40
eigval :      257.71   274.95   277.51   319.70   374.60   400.49
eigval :      436.15   488.56   536.34   743.67   762.72   781.63
eigval :      799.65   830.57   853.65   885.49   895.11   928.72
eigval :      932.32   953.13   957.50   991.93  1021.92  1045.76
eigval :     1062.20  1069.19  1089.82  1095.98  1102.79  1113.75
eigval :     1143.13  1150.99  1152.13  1162.75  1178.60  1201.12
eigval :     1220.98  1234.96  1254.57  1273.40  1276.81  1280.51
eigval :     1286.38  1290.00  1292.17  1309.52  1315.92  1349.44
eigval :     1357.96  1361.02  1363.06  1374.57  1377.65  1378.30
eigval :     1416.91  1417.43  1485.62  1490.38  1493.26  1494.61
eigval :     1498.11  1499.49  1503.58  1504.56  1505.39  1506.36
eigval :     1506.50  1507.89  1509.11  1514.48  2954.19  2954.69
eigval :     2955.43  2956.23  2956.95  2958.84  2959.47  2963.92
eigval :     2970.50  2971.08  2975.30  2977.01  2981.66  2983.19
eigval :     2986.14  2988.48  2990.81  2993.27  3008.01  3010.25
eigval :     3026.27  3028.01  3030.10  3031.31  3036.09  3037.01
           -------------------------------------------------
          |                Property Printout                |
           -------------------------------------------------

    * Orbital Energies and Occupations

         #    Occupation            Energy/Eh            Energy/eV
      -------------------------------------------------------------
         1        2.0000           -0.6234782             -16.9657
       ...           ...                  ...                  ...
        25        2.0000           -0.4536157             -12.3435
        26        2.0000           -0.4508696             -12.2688
        27        2.0000           -0.4455824             -12.1249
        28        2.0000           -0.4372015             -11.8969
        29        2.0000           -0.4344723             -11.8226
        30        2.0000           -0.4318908             -11.7523
        31        2.0000           -0.4248911             -11.5619
        32        2.0000           -0.4228059             -11.5051
        33        2.0000           -0.4194161             -11.4129
        34        2.0000           -0.4162526             -11.3268
        35        2.0000           -0.4139505             -11.2642
        36        2.0000           -0.4091625             -11.1339
        37        2.0000           -0.4074501             -11.0873 (HOMO)
        38                          0.0666525               1.8137 (LUMO)
        39                          0.0739249               2.0116
        40                          0.0866018               2.3566
        41                          0.0936181               2.5475
        42                          0.0977054               2.6587
        43                          0.1055143               2.8712
        44                          0.1193095               3.2466
        45                          0.1207104               3.2847
        46                          0.1317295               3.5845
        47                          0.1340173               3.6468
        48                          0.1398881               3.8065
       ...                                ...                  ...
        74                          0.3354461               9.1280
      -------------------------------------------------------------
                  HL-Gap            0.4741026 Eh           12.9010 eV
             Fermi-level           -0.1703988 Eh           -4.6368 eV

     #   Z          covCN         q      C6AA      α(0)
     1   6 C        3.752    -0.101    22.497     6.764
     2   6 C        3.801    -0.052    21.511     6.603
     3   6 C        3.802    -0.057    21.605     6.617
     4   6 C        3.801    -0.057    21.604     6.618
     5   6 C        3.801    -0.057    21.605     6.618
     6   6 C        3.801    -0.058    21.617     6.620
     7   6 C        3.801    -0.057    21.605     6.618
     8   6 C        3.800    -0.057    21.603     6.618
     9   6 C        3.800    -0.057    21.600     6.617
    10   6 C        3.802    -0.056    21.584     6.614
    11   6 C        3.800    -0.052    21.514     6.604
    12   6 C        3.752    -0.101    22.488     6.762
    13   1 H        0.925     0.033     2.547     2.496
    14   1 H        0.925     0.033     2.547     2.496
    15   1 H        0.925     0.032     2.562     2.503
    16   1 H        0.924     0.027     2.634     2.538
    17   1 H        0.924     0.027     2.634     2.538
    18   1 H        0.924     0.028     2.610     2.526
    19   1 H        0.924     0.032     2.554     2.499
    20   1 H        0.924     0.026     2.649     2.545
    21   1 H        0.924     0.030     2.586     2.515
    22   1 H        0.924     0.027     2.627     2.535
    23   1 H        0.924     0.027     2.630     2.536
    24   1 H        0.924     0.026     2.649     2.545
    25   1 H        0.925     0.035     2.514     2.479
    26   1 H        0.924     0.025     2.662     2.552
    27   1 H        0.925     0.038     2.478     2.462
    28   1 H        0.924     0.029     2.608     2.525
    29   1 H        0.924     0.026     2.647     2.544
    30   1 H        0.924     0.026     2.646     2.544
    31   1 H        0.924     0.029     2.601     2.522
    32   1 H        0.924     0.033     2.543     2.494
    33   1 H        0.924     0.026     2.651     2.546
    34   1 H        0.924     0.032     2.564     2.504
    35   1 H        0.924     0.027     2.634     2.538
    36   1 H        0.925     0.031     2.571     2.507
    37   1 H        0.925     0.032     2.558     2.501
    38   1 H        0.925     0.031     2.575     2.509

 Mol. C6AA /au·bohr⁶  :       9540.926316
 Mol. C8AA /au·bohr⁸  :     198798.852781
 Mol. α(0) /au        :        145.174065


Wiberg/Mayer (AO) data.
largest (>0.10) Wiberg bond orders for each atom

 ---------------------------------------------------------------------------
     #   Z sym  total        # sym  WBO       # sym  WBO       # sym  WBO
 ---------------------------------------------------------------------------
     1   6 C    3.997 --     2 C    1.019    14 H    0.988    13 H    0.988
                            15 H    0.988
     2   6 C    3.998 --     1 C    1.019     3 C    1.008    17 H    0.979
                            16 H    0.979
     3   6 C    3.997 --     4 C    1.008     2 C    1.008    18 H    0.977
                            19 H    0.972
     4   6 C    3.998 --     3 C    1.008     5 C    1.007    20 H    0.977
                            21 H    0.975
     5   6 C    3.997 --     6 C    1.007     4 C    1.007    22 H    0.978
                            23 H    0.977
     6   6 C    3.998 --     7 C    1.009     5 C    1.007    24 H    0.977
                            25 H    0.973
     7   6 C    3.998 --     6 C    1.009     8 C    1.007    26 H    0.977
                            27 H    0.971
     8   6 C    3.998 --     7 C    1.007     9 C    1.007    29 H    0.977
                            28 H    0.977
     9   6 C    3.998 --    10 C    1.007     8 C    1.007    30 H    0.978
                            31 H    0.976
    10   6 C    3.997 --    11 C    1.009     9 C    1.007    33 H    0.977
                            32 H    0.972
    11   6 C    3.998 --    12 C    1.019    10 C    1.009    35 H    0.979
                            34 H    0.976
    12   6 C    3.997 --    11 C    1.019    36 H    0.988    37 H    0.988
                            38 H    0.988
    13   1 H    0.999 --     1 C    0.988
    14   1 H    0.999 --     1 C    0.988
    15   1 H    0.999 --     1 C    0.988
    16   1 H    0.999 --     2 C    0.979
    17   1 H    0.999 --     2 C    0.979
    18   1 H    0.999 --     3 C    0.977
    19   1 H    0.999 --     3 C    0.972
    20   1 H    0.999 --     4 C    0.977
    21   1 H    0.999 --     4 C    0.975
    22   1 H    0.999 --     5 C    0.978
    23   1 H    0.999 --     5 C    0.977
    24   1 H    0.999 --     6 C    0.977
    25   1 H    0.999 --     6 C    0.973
    26   1 H    0.999 --     7 C    0.977
    27   1 H    0.999 --     7 C    0.971
    28   1 H    0.999 --     8 C    0.977
    29   1 H    0.999 --     8 C    0.977
    30   1 H    0.999 --     9 C    0.978
    31   1 H    0.999 --     9 C    0.976
    32   1 H    0.999 --    10 C    0.972
    33   1 H    0.999 --    10 C    0.977
    34   1 H    0.999 --    11 C    0.976
    35   1 H    0.999 --    11 C    0.979
    36   1 H    0.999 --    12 C    0.988
    37   1 H    0.999 --    12 C    0.988
    38   1 H    0.999 --    12 C    0.988
 ---------------------------------------------------------------------------

Topologies differ in total number of bonds
Writing topology from bond orders to xtbtopo.mol

molecular dipole:
                 x           y           z       tot (Debye)
 q only:        0.001       0.012      -0.005
   full:        0.002       0.010      -0.006       0.030
molecular quadrupole (traceless):
                xx          xy          yy          xz          yz          zz
 q only:       -0.428       0.172       0.067      -0.181      -0.005       0.361
  q+dip:        0.666      -0.497      -1.308      -0.336       0.069       0.642
   full:        0.235      -0.192      -0.613      -0.210       0.033       0.378

           -------------------------------------------------
          |                Geometry Summary                 |
           -------------------------------------------------

      molecular mass/u    :      170.3352903
   center of mass at/Å    :       -0.0022765       0.0017860       0.0006850
  moments of inertia/u·Å² :        0.6184486E+03   0.1001300E+04   0.1455070E+04
rotational constants/cm⁻¹ :        0.2725794E-01   0.1683575E-01   0.1158544E-01

 * 37 selected distances

     #   Z          #   Z                                           value/Å
     1   6 C        2   6 C                                       1.5238694
     2   6 C        3   6 C                                       1.5268570
     3   6 C        4   6 C                                       1.5268634
     4   6 C        5   6 C                                       1.5303276
     5   6 C        6   6 C                                       1.5298551
     6   6 C        7   6 C                                       1.5266057
     7   6 C        8   6 C                                       1.5291821
     8   6 C        9   6 C                                       1.5314575 (max)
     9   6 C       10   6 C                                       1.5293864
    10   6 C       11   6 C                                       1.5266299
    11   6 C       12   6 C                                       1.5241316
     1   6 C       13   1 H                                       1.0881795
     1   6 C       14   1 H                                       1.0879802
     1   6 C       15   1 H                                       1.0876369 (min)
     2   6 C       16   1 H                                       1.0925119
     2   6 C       17   1 H                                       1.0928682
     3   6 C       18   1 H                                       1.0927810
     3   6 C       19   1 H                                       1.0913296
     4   6 C       20   1 H                                       1.0933814
     4   6 C       21   1 H                                       1.0915333
     5   6 C       22   1 H                                       1.0931638
     5   6 C       23   1 H                                       1.0932444
     6   6 C       24   1 H                                       1.0933764
     6   6 C       25   1 H                                       1.0897403
     7   6 C       26   1 H                                       1.0935031
     7   6 C       27   1 H                                       1.0895114
     8   6 C       28   1 H                                       1.0920977
     8   6 C       29   1 H                                       1.0933397
     9   6 C       30   1 H                                       1.0932979
     9   6 C       31   1 H                                       1.0920912
    10   6 C       32   1 H                                       1.0913701
    10   6 C       33   1 H                                       1.0935729
    11   6 C       34   1 H                                       1.0911504
    11   6 C       35   1 H                                       1.0925468
    12   6 C       36   1 H                                       1.0880984
    12   6 C       37   1 H                                       1.0883384
    12   6 C       38   1 H                                       1.0876886

 * 2 distinct bonds (by element types)

   Z      Z             #   av. dist./Å        max./Å        min./Å
   1 H    6 C          26     1.0913205     1.0935729     1.0876369
   6 C    6 C          11     1.5277423     1.5314575     1.5238694

           -------------------------------------------------
          |               Frequency Printout                |
           -------------------------------------------------
 projected vibrational frequencies (cm⁻¹)
eigval :       -0.00    -0.00     0.00     0.00     0.00     0.00
eigval :       17.25    19.93    38.36    60.63    79.19    91.53
eigval :      107.54   153.90   167.09   212.40   227.82   236.40
eigval :      257.71   274.95   277.51   319.70   374.60   400.49
eigval :      436.15   488.56   536.34   743.67   762.72   781.63
eigval :      799.65   830.57   853.65   885.49   895.11   928.72
eigval :      932.32   953.13   957.50   991.93  1021.92  1045.76
eigval :     1062.20  1069.19  1089.82  1095.98  1102.79  1113.75
eigval :     1143.13  1150.99  1152.13  1162.75  1178.60  1201.12
eigval :     1220.98  1234.96  1254.57  1273.40  1276.81  1280.51
eigval :     1286.38  1290.00  1292.17  1309.52  1315.92  1349.44
eigval :     1357.96  1361.02  1363.06  1374.57  1377.65  1378.30
eigval :     1416.91  1417.43  1485.62  1490.38  1493.26  1494.61
eigval :     1498.11  1499.49  1503.58  1504.56  1505.39  1506.36
eigval :     1506.50  1507.89  1509.11  1514.48  2954.19  2954.69
eigval :     2955.43  2956.23  2956.95  2958.84  2959.47  2963.92
eigval :     2970.50  2971.08  2975.30  2977.01  2981.66  2983.19
eigval :     2986.14  2988.48  2990.81  2993.27  3008.01  3010.25
eigval :     3026.27  3028.01  3030.10  3031.31  3036.09  3037.01
 reduced masses (amu)
   1: 10.02   2: 10.23   3:  9.99   4: 10.09   5: 10.19   6:  9.63   7:  8.73   8:  9.42
   9:  9.19  10:  5.62  11:  5.68  12:  8.47  13:  8.05  14:  8.70  15:  8.58  16:  6.36
  17:  3.12  18:  3.27  19:  7.71  20:  6.38  21:  7.29  22:  7.51  23:  8.06  24:  8.70
  25:  8.03  26:  8.23  27:  8.34  28:  2.82  29:  2.27  30:  2.24  31:  3.05  32:  3.92
  33:  5.04  34:  5.61  35:  6.85  36:  5.20  37:  6.25  38:  5.92  39:  4.16  40:  4.76
  41:  6.33  42:  4.99  43:  6.06  44:  7.03  45:  6.95  46:  6.80  47:  5.22  48:  7.14
  49:  8.02  50:  7.28  51:  7.91  52:  7.83  53:  5.32  54:  5.04  55:  4.88  56:  4.35
  57:  3.66  58:  3.06  59:  3.30  60:  2.10  61:  1.85  62:  2.37  63:  2.48  64:  3.51
  65:  3.33  66:  4.29  67:  4.78  68:  4.57  69:  4.53  70:  5.12  71:  5.35  72:  5.27
  73:  3.18  74:  3.16  75:  1.91  76:  1.90  77:  1.92  78:  1.94  79:  1.90  80:  1.87
  81:  1.88  82:  1.80  83:  1.54  84:  1.89  85:  1.60  86:  1.66  87:  1.68  88:  1.88
  89:  1.90  90:  1.88  91:  1.86  92:  1.89  93:  1.85  94:  1.85  95:  1.88  96:  1.80
  97:  1.81  98:  1.79  99:  1.57 100:  1.48 101:  1.50 102:  1.60 103:  1.73 104:  1.68
 105:  1.57 106:  1.58 107:  1.71 108:  1.64 109:  1.94 110:  1.94 111:  1.89 112:  1.91
 113:  1.31 114:  1.29
 IR intensities (km·mol⁻¹)
   1:  0.00   2:  0.00   3:  0.00   4:  0.00   5:  0.00   6:  0.00   7:  0.00   8:  0.00
   9:  0.01  10:  0.00  11:  0.01  12:  0.02  13:  0.01  14:  0.06  15:  0.11  16:  0.01
  17:  0.02  18:  0.02  19:  0.17  20:  0.07  21:  0.45  22:  0.65  23:  0.07  24:  0.03
  25:  0.12  26:  0.63  27:  0.89  28: 11.95  29: 23.37  30:  2.23  31:  1.42  32:  1.48
  33:  0.92  34:  2.13  35:  1.27  36:  3.32  37:  1.58  38:  3.30  39:  1.41  40:  1.18
  41:  1.19  42:  0.43  43:  0.71  44:  0.19  45:  0.98  46:  0.79  47:  1.03  48:  1.20
  49:  0.07  50:  0.67  51:  1.82  52:  0.04  53:  0.38  54:  0.14  55:  0.08  56:  0.66
  57:  0.18  58:  0.32  59:  0.10  60:  0.63  61:  0.26  62:  0.20  63:  0.52  64:  1.25
  65:  0.31  66:  0.12  67:  3.88  68:  2.34  69:  2.72  70:  0.28  71:  1.20  72:  0.48
  73:  0.44  74:  1.15  75:  0.61  76:  0.39  77:  0.52  78:  0.36  79:  1.00  80:  0.23
  81:  0.45  82:  0.67  83:  2.39  84:  0.41  85:  1.39  86:  0.98  87:  0.85  88:  0.09
  89:  0.75  90: 19.22  91: 13.78  92:  2.99  93: 47.27  94:  5.37  95: 17.43  96: 56.84
  97: 68.12  98: 32.72  99:113.51 100: 18.52 101: 51.14 102: 45.03 103: 28.72 104: 68.41
 105: 44.89 106: 98.31 107: 58.54 108: 96.99 109: 73.10 110: 58.65 111: 58.70 112: 64.78
 113: 34.75 114: 29.51
 Raman intensities (amu)
   1:  0.00   2:  0.00   3:  0.00   4:  0.00   5:  0.00   6:  0.00   7:  0.00   8:  0.00
   9:  0.00  10:  0.00  11:  0.00  12:  0.00  13:  0.00  14:  0.00  15:  0.00  16:  0.00
  17:  0.00  18:  0.00  19:  0.00  20:  0.00  21:  0.00  22:  0.00  23:  0.00  24:  0.00
  25:  0.00  26:  0.00  27:  0.00  28:  0.00  29:  0.00  30:  0.00  31:  0.00  32:  0.00
  33:  0.00  34:  0.00  35:  0.00  36:  0.00  37:  0.00  38:  0.00  39:  0.00  40:  0.00
  41:  0.00  42:  0.00  43:  0.00  44:  0.00  45:  0.00  46:  0.00  47:  0.00  48:  0.00
  49:  0.00  50:  0.00  51:  0.00  52:  0.00  53:  0.00  54:  0.00  55:  0.00  56:  0.00
  57:  0.00  58:  0.00  59:  0.00  60:  0.00  61:  0.00  62:  0.00  63:  0.00  64:  0.00
  65:  0.00  66:  0.00  67:  0.00  68:  0.00  69:  0.00  70:  0.00  71:  0.00  72:  0.00
  73:  0.00  74:  0.00  75:  0.00  76:  0.00  77:  0.00  78:  0.00  79:  0.00  80:  0.00
  81:  0.00  82:  0.00  83:  0.00  84:  0.00  85:  0.00  86:  0.00  87:  0.00  88:  0.00
  89:  0.00  90:  0.00  91:  0.00  92:  0.00  93:  0.00  94:  0.00  95:  0.00  96:  0.00
  97:  0.00  98:  0.00  99:  0.00 100:  0.00 101:  0.00 102:  0.00 103:  0.00 104:  0.00
 105:  0.00 106:  0.00 107:  0.00 108:  0.00 109:  0.00 110:  0.00 111:  0.00 112:  0.00
 113:  0.00 114:  0.00
 output can be read by thermo (or use thermo option).
 writing <g98.out> molden fake output.
 recommended (thermochemical) frequency scaling factor: 1.0
           -------------------------------------------------
          |             Thermodynamic Functions             |
           -------------------------------------------------

Molecule has no symmetry elements
It seems to be the C1 point group
c1  symmetry found (for desy threshold:  0.10E+00) used in thermo

          ...................................................
          :                      SETUP                      :
          :.................................................:
          :  # frequencies                         108      :
          :  # imaginary freq.                       0      :
          :  linear?                             false      :
          :  only rotor calc.                    false      :
          :  symmetry                               c1      :
          :  rotational number                       1      :
          :  scaling factor                  1.0000000      :
          :  rotor cutoff                   50.0000000 cm⁻¹ :
          :  imag. cutoff                  -20.0000000 cm⁻¹ :
          :.................................................:

    mode    ω/cm⁻¹     T·S(HO)/kcal·mol⁻¹    T·S(FR)/kcal·mol⁻¹   T·S(vib)
   ------------------------------------------------------------------------
       1     17.25    -2.06560 (  1.40%)    -1.37155 ( 98.60%)    -1.38124
       2     19.93    -1.98011 (  2.46%)    -1.32881 ( 97.54%)    -1.34485
       3     38.36    -1.59274 ( 25.73%)    -1.13494 ( 74.27%)    -1.25272
       4     60.63    -1.32279 ( 68.37%)    -0.99938 ( 31.63%)    -1.22050
       5     79.19    -1.16600 ( 86.29%)    -0.92026 ( 13.71%)    -1.13230
       6     91.53    -1.08143 ( 91.82%)    -0.87738 (  8.18%)    -1.06474
       7    107.54    -0.98774 ( 95.53%)    -0.82964 (  4.47%)    -0.98069
       8    153.90    -0.78217 ( 98.90%)    -0.72345 (  1.10%)    -0.78152
       9    167.09    -0.73582 ( 99.20%)    -0.69910 (  0.80%)    -0.73552
      10    212.40    -0.60314 ( 99.69%)    -0.62803 (  0.31%)    -0.60322
      11    227.82    -0.56531 ( 99.77%)    -0.60727 (  0.23%)    -0.56541
      12    236.40    -0.54555 ( 99.80%)    -0.59632 (  0.20%)    -0.54566
      13    257.71    -0.50007 ( 99.86%)    -0.57075 (  0.14%)    -0.50017
      14    274.95    -0.46657 ( 99.89%)    -0.55157 (  0.11%)    -0.46666
      15    277.51    -0.46183 ( 99.89%)    -0.54882 (  0.11%)    -0.46192
   ------------------------------------------------------------------------

   temp. (K)  partition function   enthalpy   heat capacity  entropy
                                   cal/mol     cal/K/mol   cal/K/mol   J/K/mol
 298.15  VIB  0.712E+07             8218.928     48.159     52.821
         ROT  0.229E+07              888.752      2.981     32.085
         INT  0.163E+14             9107.680     51.140     84.906
         TR   0.215E+28             1481.254      4.968     41.287
         TOT                       10588.9344    56.1082   126.1926   527.9900

       T/K    H(0)-H(T)+PV         H(T)/Eh          T*S/Eh         G(T)/Eh
   ------------------------------------------------------------------------
    298.15    0.168745E-01    0.374135E+00    0.599582E-01    0.314177E+00
   ------------------------------------------------------------------------

         :::::::::::::::::::::::::::::::::::::::::::::::::::::
         ::                  THERMODYNAMIC                  ::
         :::::::::::::::::::::::::::::::::::::::::::::::::::::
         :: total free energy         -38.662255809774 Eh   ::
         ::.................................................::
         :: total energy              -38.976433053786 Eh   ::
         :: zero point energy           0.357260899847 Eh   ::
         :: G(RRHO) w/o ZPVE           -0.043083655835 Eh   ::
         :: G(RRHO) contrib.            0.314177244012 Eh   ::
         :::::::::::::::::::::::::::::::::::::::::::::::::::::
 
 normal mode %tage of torsion character
   1:  0.00   2:  0.00   3:  0.00   4:  0.00   5:  0.00   6:  0.00   7:  0.37   8:  0.42
   9:  0.37  10:  0.70  11:  0.48  12:  0.52  13:  0.53  14:  0.37  15:  0.41  16:  0.60
  17:  0.80  18:  0.84  19:  0.50  20:  0.69  21:  0.43  22:  0.48  23:  0.31  24:  0.10
  25:  0.27  26:  0.21  27:  0.22  28:  0.57  29:  0.56  30:  0.50  31:  0.54  32:  0.38
  33:  0.46  34:  0.35  35:  0.28  36:  0.38  37:  0.21  38:  0.21  39:  0.30  40:  0.32
  41:  0.35  42:  0.37  43:  0.15  44:  0.27  45:  0.16  46:  0.13  47:  0.27  48:  0.12
  49:  0.06  50:  0.38  51:  0.26  52:  0.09  53:  0.21  54:  0.41  55:  0.43  56:  0.40
  57:  0.21  58:  0.23  59:  0.17  60:  0.16  61:  0.23  62:  0.13  63:  0.05  64:  0.11
  65:  0.13  66:  0.07  67:  0.12  68:  0.10  69:  0.08  70:  0.06  71:  0.07  72:  0.06
  73:  0.00  74:  0.00  75:  0.62  76:  0.65  77:  0.66  78:  0.65  79:  0.64  80:  0.64
  81:  0.67  82:  0.64  83:  0.91  84:  0.62  85:  0.86  86:  0.86  87:  0.83  88:  0.65
  89:  0.21  90:  0.27  91:  0.30  92:  0.24  93:  0.28  94:  0.29  95:  0.20  96:  0.06
  97:  0.09  98:  0.06  99:  0.01 100:  0.02 101:  0.03 102:  0.01 103:  0.01 104:  0.02
 105:  0.03 106:  0.04 107:  0.03 108:  0.11 109:  0.05 110:  0.08 111:  0.03 112:  0.04
 113:  0.00 114:  0.00
 recommended # of modes for mode following           4

optimized geometry written to: xtbopt.xyz


           -------------------------------------------------
          | TOTAL ENERGY              -38.976433053786 Eh   |
          | TOTAL ENTHALPY            -38.602297612843 Eh   |
          | TOTAL FREE ENERGY         -38.662255809774 Eh   |
          | GRADIENT NORM               0.000194709430 Eh/α |
          | HOMO-LUMO GAP              12.900989709248 eV   |
           -------------------------------------------------

------------------------------------------------------------------------
 * finished run on 2024/04/23 at 12:10:30.865     
------------------------------------------------------------------------
 total:
 * wall-time:     0 d,  0 h,  0 min,  2.428 sec
 *  cpu-time:     0 d,  0 h,  0 min,  6.976 sec
 * ratio c/w:     2.873 speedup
 SCF:
 * wall-time:     0 d,  0 h,  0 min,  0.049 sec
 *  cpu-time:     0 d,  0 h,  0 min,  0.127 sec
 * ratio c/w:     2.624 speedup
 ANC optimizer:
 * wall-time:     0 d,  0 h,  0 min,  0.506 sec
 *  cpu-time:     0 d,  0 h,  0 min,  1.486 sec
 * ratio c/w:     2.939 speedup
 analytical hessian:
 * wall-time:     0 d,  0 h,  0 min,  1.770 sec
 *  cpu-time:     0 d,  0 h,  0 min,  5.155 sec
 * ratio c/w:     2.912 speedup

