38
 energy: -38.973585350671 gnorm: 0.031641393715 xtb: 6.6.1 (8d0f1dd)
C            2.80032600000000        2.71021300000000       -0.71454300000000
C            2.76359800000000        1.62514400000000        0.35011400000000
C            2.34413700000000        0.26506600000000       -0.20907800000000
C            2.25169500000000       -0.81947400000000        0.86450400000000
C            1.80597300000000       -2.18258400000000        0.32541900000000
C            0.41433500000000       -2.17811200000000       -0.31560800000000
C           -0.70063200000000       -1.77521700000000        0.64969500000000
C           -2.09474400000000       -1.78874200000000        0.01638200000000
C           -2.26873400000000       -0.79924500000000       -1.14159500000000
C           -1.95725400000000        0.65673600000000       -0.78152800000000
C           -2.84807200000000        1.22446800000000        0.32376300000000
C           -2.52990600000000        2.67754700000000        0.64005700000000
H            1.82012800000000        2.84207800000000       -1.17804300000000
H            3.50122000000000        2.45704100000000       -1.51276400000000
H            3.10261500000000        3.67747900000000       -0.30580600000000
H            3.74544000000000        1.53283200000000        0.83407900000000
H            2.07551000000000        1.91235200000000        1.15701000000000
H            3.04593900000000       -0.04771500000000       -0.99224500000000
H            1.38007800000000        0.37024700000000       -0.71914900000000
H            3.22617200000000       -0.91326800000000        1.36239400000000
H            1.56686300000000       -0.49004800000000        1.65496400000000
H            2.54694800000000       -2.53713600000000       -0.40326400000000
H            1.82226400000000       -2.92299300000000        1.13615900000000
H            0.18790000000000       -3.17024300000000       -0.72866800000000
H            0.41223500000000       -1.50831200000000       -1.18277200000000
H           -0.67669900000000       -2.44310400000000        1.52124000000000
H           -0.49631800000000       -0.77834200000000        1.05608300000000
H           -2.85063500000000       -1.58204400000000        0.78515900000000
H           -2.31861800000000       -2.80606300000000       -0.33139400000000
H           -3.29664700000000       -0.85908500000000       -1.52374200000000
H           -1.63766300000000       -1.11253300000000       -1.98341500000000
H           -0.90726000000000        0.75101100000000       -0.48183200000000
H           -2.04890200000000        1.29003700000000       -1.67427100000000
H           -2.74404500000000        0.61499300000000        1.23094000000000
H           -3.90155500000000        1.12080200000000        0.03053400000000
H           -2.65929300000000        3.31153700000000       -0.23957600000000
H           -1.49472200000000        2.79211800000000        0.96854000000000
H           -3.17122400000000        3.07682600000000        1.42948300000000
38
 energy: -38.975821172254 gnorm: 0.013721903164 xtb: 6.6.1 (8d0f1dd)
C            2.79971038661408        2.70228369507847       -0.71461031180682
C            2.76503274835999        1.62041843850760        0.35395125527091
C            2.34377411612717        0.26630400091975       -0.21348997466796
C            2.24879909406433       -0.81308481933364        0.86330517535460
C            1.80159243395121       -2.17445442753945        0.32564591726539
C            0.41334111828337       -2.17347542236230       -0.31723340231268
C           -0.69862004453583       -1.77262928088828        0.65033333019973
C           -2.08924834607026       -1.78831660865275        0.01511433948111
C           -2.26792623562768       -0.79498532178101       -1.13653879130344
C           -1.95587761748184        0.65892865150948       -0.77765879052116
C           -2.85081118546782        1.22159912753222        0.32486230045352
C           -2.52726213603228        2.67503718541743        0.63364255695319
H            1.81721388364075        2.83094488746721       -1.16922261792793
H            3.50392749078085        2.44487832851714       -1.50554547835370
H            3.10242880646057        3.66043881173041       -0.29320475602321
H            3.75199792309130        1.52955681699817        0.82065598413234
H            2.06653276697479        1.91225579076735        1.14646886295313
H            3.05712626358012       -0.04699253240647       -0.98320653946399
H            1.37498465569683        0.38097514554498       -0.70731818567397
H            3.22862357048820       -0.92483263619414        1.34127398217451
H            1.56057848418630       -0.48450636696809        1.64769093069045
H            2.53283758052223       -2.52145195467272       -0.41283341666615
H            1.81355249902534       -2.90103104636605        1.14580894262660
H            0.19984224742382       -3.17485367633879       -0.70808694153514
H            0.41640240178059       -1.49991661710352       -1.17710429811023
H           -0.68844717318548       -2.45745767633030        1.50589146755212
H           -0.50033118672559       -0.77517334123282        1.04806531936422
H           -2.83451098042919       -1.57681567174728        0.78842244387611
H           -2.30462844055128       -2.79760337838987       -0.35342706237149
H           -3.30069006439802       -0.85872529562791       -1.49741073653680
H           -1.63074849909453       -1.09795311884843       -1.97346895302170
H           -0.90960677110360        0.74874698529963       -0.47233622400237
H           -2.06983455720242        1.27674439862205       -1.67586535074055
H           -2.73014423964628        0.62604005849313        1.23487218410022
H           -3.89972582116258        1.13176027304930        0.02135431812979
H           -2.66243470071819        3.30123401685789       -0.24819070926602
H           -1.49385656721382        2.78027038092699        0.96443247579291
H           -3.17314090440514        3.06010919954461        1.42218675393449
38
 energy: -38.976164044799 gnorm: 0.002500094515 xtb: 6.6.1 (8d0f1dd)
C            2.80100183599919        2.70017755125140       -0.71435141284195
C            2.76716569366039        1.61813500867731        0.35678925168795
C            2.34384550229993        0.26758579209478       -0.21499942548075
C            2.24964823714351       -0.80978734763418        0.86271611119402
C            1.80040115305939       -2.17061767129537        0.32633138220534
C            0.41287900842117       -2.17261264848489       -0.31714416799060
C           -0.69833104434973       -1.77426640196526        0.65086117489598
C           -2.08735533134236       -1.78991663165137        0.01333744705305
C           -2.26896873750859       -0.79339506613850       -1.13485217640562
C           -1.95829684199454        0.66036679047942       -0.77665972735095
C           -2.85258303240570        1.22074413397241        0.32618461691720
C           -2.52679594088871        2.67669454869037        0.63048002610095
H            1.81756595440908        2.82424376834247       -1.16421059858317
H            3.50512104163352        2.43809125538282       -1.50147997648131
H            3.10394487940605        3.65387862542320       -0.28750646040863
H            3.75501976743348        1.52701909459490        0.81509003666265
H            2.06539578612514        1.91082284871212        1.14253406607090
H            3.06088312848651       -0.04548733472308       -0.97817191507121
H            1.37456883862966        0.38846794089093       -0.70178774930770
H            3.23150041295545       -0.92985192908152        1.32934931639753
H            1.56228797183276       -0.47983170022630        1.64408649599249
H            2.52667416850896       -2.51332025264284       -0.41586716100072
H            1.80986238941221       -2.88847746296839        1.15124985666790
H            0.20682762985914       -3.17776042907914       -0.69599593362934
H            0.41695859485402       -1.49891526602746       -1.17364297991490
H           -0.69426559099615       -2.46780472915628        1.49668288288792
H           -0.50362460437616       -0.77827270096633        1.04660265266953
H           -2.82776925284020       -1.58001869827525        0.78840604721084
H           -2.29529424407975       -2.79364573019632       -0.36803802620288
H           -3.30416683554656       -0.85759537890779       -1.48175429523849
H           -1.63137441361540       -1.08972372301977       -1.97078544391732
H           -0.91482986068473        0.75018137641745       -0.46975788098734
H           -2.08338141882922        1.27059444385641       -1.67600991648269
H           -2.72483382943294        0.63309805655773        1.23702466807385
H           -3.89800470260058        1.13657442396716        0.01886920432934
H           -2.66367395345630        3.29599259876032       -0.25386819429621
H           -1.49386848159823        2.77602638771771        0.95923637169963
H           -3.17368087758371        3.05687345665115        1.41827783287473
38
 energy: -38.976192428058 gnorm: 0.000901404941 xtb: 6.6.1 (8d0f1dd)
C            2.80255506148505        2.70064621698795       -0.71383141805981
C            2.76902358369624        1.61808652240222        0.35799606409950
C            2.34467683610196        0.26839723845669       -0.21530436897900
C            2.25099894564768       -0.80880663336756        0.86261315290877
C            1.80088213329606       -2.17007020542632        0.32717660727736
C            0.41308092250462       -2.17354774770494       -0.31667302730170
C           -0.69868675196546       -1.77646987612919        0.65116505406282
C           -2.08735979042222       -1.79192887973103        0.01179609967282
C           -2.27107375051864       -0.79300043550444       -1.13444912358540
C           -1.96040934188291        0.66116909927108       -0.77642438621976
C           -2.85410637508872        1.22119867835850        0.32705949988947
C           -2.52717784537522        2.67844677588905        0.62910298613568
H            1.81887356526827        2.82341064006989       -1.16285694106900
H            3.50612150697347        2.43721880843661       -1.50064047037103
H            3.10561848273523        3.65399524397839       -0.28708888086301
H            3.75681750364206        1.52631859354780        0.81516439529098
H            2.06772891441502        1.91059475307226        1.14359359917859
H            3.06094961546406       -0.04450276844966       -0.97866731992556
H            1.37546935736052        0.39054978795636       -0.70110126109048
H            3.23338960341552       -0.92970419430936        1.32668691614548
H            1.56546102928460       -0.47806389027985        1.64481519639211
H            2.52676921401516       -2.51264644079298       -0.41480284603943
H            1.81003000993298       -2.88642410697446        1.15276606411168
H            0.20889338645024       -3.17917750278571       -0.69379864249721
H            0.41626535506068       -1.50065408060535       -1.17344454687865
H           -0.69567300024912       -2.47192051501093        1.49482408063907
H           -0.50482008062151       -0.78138998601403        1.04894267489410
H           -2.82836877160361       -1.58535091309800        0.78665682469705
H           -2.29254513998297       -2.79437350236300       -0.37309624466506
H           -3.30687605219080       -0.85699192218453       -1.47814468019863
H           -1.63530150326925       -1.08789370419556       -1.97176262386546
H           -0.91688533336021        0.75215771026127       -0.47105728940428
H           -2.08793283740801        1.27038812262428       -1.67556457336400
H           -2.72494499702426        0.63516170237191        1.23822866212236
H           -3.89940758353260        1.13722340737334        0.02088997313491
H           -2.66449427529986        3.29544488875569       -0.25646890190496
H           -1.49390925982744        2.77700618000043        0.95623552807729
H           -3.17317933712661        3.05976993511319        1.41669016755240
38
 energy: -38.976230996191 gnorm: 0.003468521078 xtb: 6.6.1 (8d0f1dd)
C            2.80911879054870        2.70292693125934       -0.71158382876637
C            2.77636614673456        1.61878857637718        0.36087600364414
C            2.34757366067767        0.27140670491695       -0.21540320801702
C            2.25607525990553       -0.80623265769393        0.86232659543539
C            1.80292588673695       -2.16864419513952        0.33025763460610
C            0.41443026633915       -2.17682542953380       -0.31476759975061
C           -0.70066482775723       -1.78437445681297        0.65130069764715
C           -2.08807395406010       -1.79918678778159        0.00627461247238
C           -2.27910374849250       -0.79237446586603       -1.13327467323172
C           -1.96904220151694        0.66281285408895       -0.77527171589627
C           -2.85888905722037        1.22383124696815        0.33086866653115
C           -2.52928445382807        2.68454515095499        0.62397092777377
H            1.82459520400712        2.82340674414709       -1.15849636672179
H            3.51089272868315        2.43663164987614       -1.49856431177145
H            3.11296437695028        3.65607205293681       -0.28617907012006
H            3.76447243333225        1.52426553925690        0.81549625117299
H            2.07771899047333        1.91089893787917        1.14815723923165
H            3.06061830761354       -0.04099295053001       -0.98130870766691
H            1.37797638096363        0.39676726437991       -0.69873965065771
H            3.24054404223264       -0.92854879937774        1.32007405707307
H            1.57645807463918       -0.47311082876703        1.64834560737477
H            2.52888923652038       -2.51276808855015       -0.41005702520278
H            1.81139991922531       -2.88170908837669        1.15781861536782
H            0.21574823634300       -3.18398483709429       -0.68886419301417
H            0.41432850205003       -1.50652299649950       -1.17337179074786
H           -0.70094891382028       -2.48549824200870        1.48954461828981
H           -0.50891434972222       -0.79223998706194        1.05730911263576
H           -2.83280997963204       -1.60581708890113        0.78064092559734
H           -2.28423926896065       -2.79856169891868       -0.38964143571932
H           -3.31736344914443       -0.85554612056543       -1.46784638543078
H           -1.65045960532409       -1.08296601235365       -1.97705172997800
H           -0.92435021102108        0.75754570257617       -0.47589750270295
H           -2.10303027561734        1.27028427681984       -1.67399547570666
H           -2.72568995813311        0.64191191082662        1.24355261517013
H           -3.90515720884712        1.13920864646342        0.03012824889907
H           -2.66867148895263        3.29440851334092       -0.26591521774684
H           -1.49446935732982        2.78237985173685        0.94537909191141
H           -3.17148113459639        3.07207917702741        1.41113436801540
38
 energy: -38.976241664269 gnorm: 0.002011968837 xtb: 6.6.1 (8d0f1dd)
C            2.81068839758988        2.70323708436279       -0.71111909354211
C            2.77779100375009        1.61912006659203        0.36055698455555
C            2.34786532560753        0.27182673544820       -0.21497416462357
C            2.25651429393827       -0.80614612595716        0.86240491719186
C            1.80298592258689       -2.16831884906380        0.33063291490215
C            0.41483060229878       -2.17680395698962       -0.31464608907153
C           -0.70116715177352       -1.78513609042976        0.65076431122391
C           -2.08821297183401       -1.80016181556238        0.00547396392763
C           -2.28065443275634       -0.79260233590393       -1.13291097819903
C           -1.97052143922964        0.66230258264814       -0.77484634961050
C           -2.85922213526421        1.22435138530886        0.33169738031493
C           -2.52987667486158        2.68486706903528        0.62287253529167
H            1.82612850263652        2.82499619013830       -1.15797588849947
H            3.51230866979602        2.43769285478313       -1.49870643112553
H            3.11504756756949        3.65640242293758       -0.28562836591763
H            3.76633535805326        1.52386042103439        0.81483450447873
H            2.07996770965887        1.91165492850316        1.14883309142446
H            3.06031744476930       -0.04078511220064       -0.98176800189127
H            1.37772967273849        0.39734181028299       -0.69773489717290
H            3.24126516180713       -0.92851124276171        1.32037647957693
H            1.57705582371312       -0.47313472088695        1.64889422378444
H            2.52926775324294       -2.51350269358466       -0.40932902672238
H            1.81144485133624       -2.88153671590485        1.15849852275951
H            0.21664986305384       -3.18414436454606       -0.68953902928030
H            0.41465823225522       -1.50632556146806       -1.17335259995752
H           -0.70181702209103       -2.48664156566038        1.48908756776738
H           -0.50954362921687       -0.79314363431310        1.05757175398669
H           -2.83350131743344       -1.60871160907438        0.78007558298994
H           -2.28368890307698       -2.79960152690449       -0.39133069918897
H           -3.31934414870304       -0.85605579249619       -1.46707011100990
H           -1.65284607353741       -1.08263615987044       -1.97780732647258
H           -0.92542938323256        0.75683805377993       -0.47613460329964
H           -2.10467567933416        1.27004807285127       -1.67374574634830
H           -2.72525482646458        0.64279766046723        1.24483372119404
H           -3.90612817606155        1.13911181960484        0.03222939463410
H           -2.67023961150451        3.29413594690565       -0.26744854468347
H           -1.49481176404857        2.78391774016102        0.94354283978594
H           -3.17146381597790        3.07366402873379        1.41011325682673
38
 energy: -38.976254369094 gnorm: 0.000905295458 xtb: 6.6.1 (8d0f1dd)
C            2.81572220667032        2.70412908842877       -0.70976047834962
C            2.78234602841163        1.61970624057664        0.35994230879236
C            2.34844925131575        0.27305306968773       -0.21395588219787
C            2.25729945385178       -0.80554644075338        0.86274802772675
C            1.80293342803720       -2.16719886711551        0.33157857411652
C            0.41577388566160       -2.17624946046210       -0.31477189641553
C           -0.70244729963855       -1.78695242412887        0.64916004087550
C           -2.08878236076519       -1.80305734062097        0.00348110388052
C           -2.28503384579625       -0.79354326782113       -1.13195486925688
C           -1.97461048685057        0.66062590339924       -0.77357671274347
C           -2.86025768880820        1.22516682634959        0.33420488491648
C           -2.53185951852027        2.68573081061789        0.61949835899204
H            1.83107111892108        2.82949116715248       -1.15615369304506
H            3.51661161129867        2.44024648813985       -1.49897031001579
H            3.12190639814319        3.65680350953000       -0.28342766882177
H            3.77203509041856        1.52200941913517        0.81257078216561
H            2.08706330076320        1.91365900783308        1.15068151807386
H            3.05890153450343       -0.04053267052773       -0.98291662247836
H            1.37692383228098        0.39969203279633       -0.69454231008598
H            3.24251295275445       -0.92837844608986        1.32110028404341
H            1.57807715934938       -0.47275656616513        1.65003361025436
H            2.52988837313926       -2.51481146414729       -0.40742143715079
H            1.81095606539334       -2.88035225849061        1.16032556704371
H            0.21913529845383       -3.18378469377324       -0.69174330571872
H            0.41561552860082       -1.50482811235867       -1.17312532112971
H           -0.70367188796910       -2.48946864834793        1.48732616269648
H           -0.51160274832364       -0.79524659171422        1.05761391765416
H           -2.83492950936622       -1.61644268900411        0.77900466131108
H           -2.28211918845747       -2.80242319727563       -0.39596376505160
H           -3.32488127525909       -0.85773531361965       -1.46420416340608
H           -1.65944853315353       -1.08173406561054       -1.97971141738096
H           -0.92867454931826        0.75432942989554       -0.47649558908773
H           -2.10937071154113        1.26891136426423       -1.67268763666569
H           -2.72338970615805        0.64532087286800        1.24858997472869
H           -3.90859393079078        1.13793587705099        0.03834710636153
H           -2.67533408649466        3.29272728636755       -0.27226373082353
H           -1.49605099277462        2.78822589056026        0.93757040105128
H           -3.17171119798291        3.07754523337326        1.40709552514083
38
 energy: -38.976260206598 gnorm: 0.001441172897 xtb: 6.6.1 (8d0f1dd)
C            2.82015883928217        2.70487442894894       -0.70872035723497
C            2.78619385494285        1.61972830908815        0.35985405904696
C            2.34855441961168        0.27399729703986       -0.21343109386366
C            2.25712228052575       -0.80474755579817        0.86311915790352
C            1.80254890087323       -2.16625092339249        0.33195923232961
C            0.41606240489221       -2.17515679811430       -0.31554835071484
C           -0.70310532890973       -1.78771395239538        0.64808579114911
C           -2.08938174702782       -1.80514574674839        0.00258705559575
C           -2.28810090948083       -0.79463638944980       -1.13136986021631
C           -1.97709190134097        0.65916308986132       -0.77272914309404
C           -2.86098237074006        1.22477497647019        0.33599544117562
C           -2.53378978643257        2.68611734468825        0.61693433934636
H            1.83539445567603        2.83272715157419       -1.15433427275713
H            3.52009124575383        2.44142873834393       -1.49902417793695
H            3.12813325741380        3.65666922111780       -0.28140172288198
H            3.77658198943300        1.51972240310524        0.81067181171799
H            2.09302193379258        1.91483655290793        1.15213659764515
H            3.05709392133689       -0.04079890217038       -0.98373883943066
H            1.37625152394617        0.40237424208817       -0.69208111026817
H            3.24225100600251       -0.92794240817463        1.32177315839195
H            1.57772914870555       -0.47199688516367        1.65035225911760
H            2.52999017093423       -2.51477406104655       -0.40627858650883
H            1.80975431640724       -2.87913774207095        1.16110283348318
H            0.22033777075951       -3.18235255822492       -0.69413932894531
H            0.41621788997933       -1.50249351770892       -1.17297942207071
H           -0.70380021909178       -2.49061849033907        1.48601097269952
H           -0.51330652314161       -0.79596995375039        1.05696401651944
H           -2.83549707540862       -1.62088978169609        0.77878553389170
H           -2.28135106112122       -2.80435604825431       -0.39812872166632
H           -3.32856482076924       -0.85914718301171       -1.46194946163014
H           -1.66389215875561       -1.08176253725971       -1.98059621336468
H           -0.93079324358403        0.75209432326295       -0.47658410273117
H           -2.11232027591178        1.26775003748682       -1.67165617998428
H           -2.72129124099140        0.64684628502067        1.25127662967732
H           -3.90999915035527        1.13561375285360        0.04281724215797
H           -2.68000856061016        3.29090158699365       -0.27598892492423
H           -1.49739597491593        2.79112962942450        0.93252636173592
H           -3.17236398167992        3.07940906449371        1.40495337663973
38
 energy: -38.976278369972 gnorm: 0.001271849032 xtb: 6.6.1 (8d0f1dd)
C            2.83564016198190        2.70721537213230       -0.70524088915042
C            2.79934815370967        1.61910117828961        0.36038621632828
C            2.34825629901597        0.27726887890904       -0.21211765828680
C            2.25491531668503       -0.80160102483437        0.86429803171558
C            1.80063321380660       -2.16295766476964        0.33215132739312
C            0.41596443681488       -2.17018718618121       -0.31919410681960
C           -0.70473719003951       -1.78869056992880        0.64508968616612
C           -2.09182321298591       -1.81117352544020        0.00149105042953
C           -2.29683863233828       -0.79898667352175       -1.12978493993346
C           -1.98362148264396        0.65410704759962       -0.77058653044361
C           -2.86286786711419        1.22149781013756        0.34115883653158
C           -2.54102777069449        2.68654190686197        0.60895393681696
H            1.85029478898578        2.84262128994901       -1.14741687108090
H            3.53166713658900        2.44328593481087       -1.49884689415399
H            3.15029266977957        3.65555189070931       -0.27488775741405
H            3.79170857378419        1.51071706534891        0.80475916013114
H            2.11321304665734        1.91795061831810        1.15728051217696
H            3.05003121248000       -0.04226639123871       -0.98647392969055
H            1.37400732997739        0.41301096880869       -0.68455611507457
H            3.23912138660425       -0.92562226655649        1.32434390290208
H            1.57427200040931       -0.46881004077934        1.65034419470269
H            2.52986795285501       -2.51258690554559       -0.40364179579174
H            1.80445199638011       -2.87524594696413        1.16173450061120
H            0.22220291748506       -3.17546015769011       -0.70340193882607
H            0.41747999389046       -1.49269427044909       -1.17274465350705
H           -0.70168551678792       -2.49219630652510        1.48229949621577
H           -0.51882663400698       -0.79642627254680        1.05425987136637
H           -2.83698089622795       -1.63160940097959        0.77959140099134
H           -2.28016867795689       -2.81014150629157       -0.40121553654634
H           -3.33882783040863       -0.86369479415882       -1.45516477965199
H           -1.67650813341982       -1.08412702254971       -1.98243862910944
H           -0.93645772344167        0.74482238290258       -0.47724606503602
H           -2.12047271277986        1.26353226698072       -1.66852857811239
H           -2.71322892625289        0.65043252828720        1.25919057945276
H           -3.91348701077703        1.12503609885213        0.05638247861808
H           -2.69699701851073        3.28373588261675       -0.28754343856065
H           -1.50273826819598        2.79952174180374        0.91579428333381
H           -3.17562008330885        3.08279406363294        1.39874764130630
38
 energy: -38.976294826240 gnorm: 0.000782358785 xtb: 6.6.1 (8d0f1dd)
C            2.85424922404330        2.70936425920691       -0.70097434870945
C            2.81491756411178        1.61808073554537        0.36184716010337
C            2.34773009936637        0.28159342083400       -0.21060156624416
C            2.25127444766172       -0.79769949049581        0.86523910984201
C            1.79779403472820       -2.15869684141173        0.33102878870478
C            0.41464563613442       -2.16327344680078       -0.32371710590396
C           -0.70643017120549       -1.78856507645072        0.64274045027536
C           -2.09488012939074       -1.81674846719213        0.00217221942332
C           -2.30535815393456       -0.80446700245583       -1.12811150600628
C           -1.98972910596819        0.64832560363979       -0.76939955745387
C           -2.86430384763231        1.21627296465814        0.34578900397472
C           -2.55035425515140        2.68581692886297        0.60041700932600
H            1.86796240031464        2.85305113676707       -1.13830020456463
H            3.54495402785374        2.44296987022186       -1.49831450114081
H            3.17747995792775        3.65377250152915       -0.26851669233592
H            3.80925523456424        1.49942769810293        0.79890606550077
H            2.13693129408956        1.92100571798941        1.16400470171812
H            3.04160174885373       -0.04353185328156       -0.98961315497886
H            1.37183728778016        0.42719417508702       -0.67662131742204
H            3.23427211350847       -0.92232632773152        1.32732844276382
H            1.56887253032981       -0.46490755098344        1.64962654320303
H            2.52905754709322       -2.50815261228337       -0.40257640424111
H            1.79802591560777       -2.87131501710885        1.16011043930673
H            0.22205215682417       -3.16605926598889       -0.71453820609275
H            0.41732489145642       -1.48010962508543       -1.17267157368783
H           -0.69785638273853       -2.49280166713784        1.47916450750278
H           -0.52475302568449       -0.79574776808933        1.05233925211667
H           -2.83878679296261       -1.63987172230120        0.78193712448463
H           -2.28022842631957       -2.81610048805630       -0.40052589520916
H           -3.34877078527852       -0.86869300330289       -1.44846402931122
H           -1.68887990360853       -1.08937004786366       -1.98349137628840
H           -0.94149588728806        0.73784854593572       -0.47988676000677
H           -2.12935470528383        1.25825047801918       -1.66641871868902