 Entering Gaussian System
 *********************************************
 Gaussian 98:
 frequency output generated by the xtb code
 *********************************************
                         Standard orientation:
 --------------------------------------------------------------------
  Center     Atomic     Atomic              Coordinates (Angstroms)
  Number     Number      Type              X           Y           Z
 --------------------------------------------------------------------
    1          6             0       -3.699093   -0.028778   -0.181143
    2          6             0       -2.334305   -0.531265    0.273096
    3          6             0       -1.208312    0.400222   -0.169087
    4          6             0        0.162764   -0.104247    0.274377
    5          6             0        1.286114    0.821173   -0.187888
    6          6             0        2.666272    0.399449    0.317354
    7          6             0        3.155102   -0.908847   -0.293335
    8          1             0       -3.901117    0.955802    0.235344
    9          1             0       -3.735998    0.045656   -1.265955
   10          1             0       -4.485447   -0.706580    0.143212
   11          1             0       -2.323396   -0.618100    1.362181
   12          1             0       -2.159712   -1.528064   -0.138940
   13          1             0       -1.223859    0.491568   -1.258016
   14          1             0       -1.380411    1.395998    0.247048
   15          1             0        0.318475   -1.105232   -0.131572
   16          1             0        0.184109   -0.180069    1.364463
   17          1             0        1.076221    1.832125    0.171199
   18          1             0        1.298542    0.856562   -1.279989
   19          1             0        3.381661    1.189323    0.075122
   20          1             0        2.637415    0.303416    1.405273
   21          1             0        3.147908   -0.847202   -1.379579
   22          1             0        2.524675   -1.740928    0.008780
   23          1             0        4.171708   -1.120341    0.030821
 --------------------------------------------------------------------
     1 basis functions        1 primitive gaussians
     1 alpha electrons        1 beta electrons
 
 Harmonic frequencies (cm**-1), IR intensities (KM/Mole),
 Raman scattering activities (A**4/amu), Raman depolarization ratios,
 reduced masses (AMU), force constants (mDyne/A) and normal coordinates:
                      1                      2                      3
                        a                      a                      a 
 Frequencies --    47.6326                70.6751               115.4338
 Red. masses --    99.0000                99.0000                99.0000
 Frc consts  --    99.0000                99.0000                99.0000
 IR Inten    --    99.0000                99.0000                99.0000
 Raman Activ --     0.0000                 0.0000                 0.0000
 Depolar     --     0.0000                 0.0000                 0.0000
 Atom AN      X      Y      Z        X      Y      Z        X      Y      Z
   1   6     0.05  -0.17  -0.35     0.08  -0.22  -0.16     0.01  -0.24   0.14
   2   6    -0.03   0.15   0.24     0.11  -0.10  -0.13     0.14   0.11   0.13
   3   6     0.02  -0.02   0.01     0.01   0.23   0.29     0.01   0.09  -0.25
   4   6    -0.03   0.14   0.33     0.04   0.21   0.15     0.05   0.04  -0.42
   5   6     0.01   0.03   0.19     0.03   0.15   0.01     0.09   0.25   0.14
   6   6     0.03  -0.13  -0.00     0.07   0.03  -0.21    -0.02  -0.08   0.16
   7   6    -0.05   0.01  -0.36    -0.33  -0.25   0.07    -0.27  -0.13   0.06
   8   1    -0.03   0.02  -0.28    -0.05  -0.12   0.04    -0.01  -0.02  -0.08
   9   1     0.08  -0.23  -0.12     0.06   0.04  -0.04    -0.05  -0.22   0.03
  10   1     0.00  -0.01  -0.04     0.05  -0.14  -0.14     0.04  -0.05   0.17
  11   1    -0.08   0.21   0.08    -0.00  -0.13  -0.05     0.08   0.13   0.05
  12   1     0.04  -0.02   0.23     0.10   0.02  -0.12     0.07   0.00   0.13
  13   1     0.04  -0.12  -0.01     0.01   0.18   0.09    -0.06  -0.01  -0.07
  14   1    -0.01   0.04  -0.11    -0.04   0.02   0.19     0.03   0.04  -0.09
  15   1     0.01   0.01   0.18    -0.01   0.06   0.04     0.03   0.07  -0.25
  16   1    -0.04   0.13   0.10     0.05   0.06   0.04    -0.01  -0.13  -0.13
  17   1     0.04   0.01   0.06     0.05   0.05   0.01     0.03   0.03   0.17
  18   1    -0.04   0.01   0.05    -0.04   0.04   0.00     0.07   0.22   0.04
  19   1     0.01  -0.03   0.04     0.05  -0.05  -0.18     0.05  -0.06   0.08
  20   1     0.03  -0.11  -0.01     0.10   0.11  -0.05    -0.03  -0.05   0.04
  21   1    -0.02   0.09  -0.10    -0.23  -0.19   0.01    -0.12  -0.03   0.02
  22   1    -0.02  -0.01  -0.17    -0.09  -0.02   0.19    -0.09  -0.02   0.04
  23   1    -0.01  -0.04  -0.13    -0.06  -0.07  -0.08    -0.07  -0.08  -0.03
                      4                      5                      6
                        a                      a                      a 
 Frequencies --   122.9635               135.4901               234.3387
 Red. masses --    99.0000                99.0000                99.0000
 Frc consts  --    99.0000                99.0000                99.0000
 IR Inten    --    99.0000                99.0000                99.0000
 Raman Activ --     0.0000                 0.0000                 0.0000
 Depolar     --     0.0000                 0.0000                 0.0000
 Atom AN      X      Y      Z        X      Y      Z        X      Y      Z
   1   6     0.03   0.01  -0.28     0.08   0.26  -0.04    -0.09  -0.03   0.06
   2   6    -0.11   0.13   0.26    -0.05  -0.08  -0.02    -0.00  -0.08  -0.25
   3   6    -0.03   0.09   0.38     0.10  -0.33  -0.14    -0.04   0.13   0.08
   4   6     0.04  -0.31  -0.25     0.08  -0.21   0.07    -0.05   0.07   0.08
   5   6    -0.06  -0.10  -0.07    -0.09   0.08   0.26     0.02  -0.05   0.01
   6   6    -0.00   0.09  -0.08     0.07   0.18  -0.11     0.03  -0.04   0.01
   7   6     0.12   0.07   0.07    -0.17   0.04  -0.01     0.12  -0.01  -0.01
   8   1    -0.02   0.05  -0.21     0.11   0.11  -0.04     0.21   0.19  -0.33
   9   1     0.09  -0.11  -0.09     0.02   0.04  -0.01    -0.26  -0.44  -0.00
  10   1    -0.03   0.05  -0.07    -0.04   0.16   0.02    -0.05   0.24   0.47
  11   1    -0.12   0.10   0.08    -0.01   0.00  -0.00     0.02  -0.12  -0.08
  12   1     0.01   0.02   0.15    -0.09  -0.04   0.02     0.00   0.02  -0.17
  13   1    -0.09   0.16   0.12     0.06  -0.17  -0.05     0.01   0.14   0.03
  14   1     0.08  -0.02   0.24     0.04  -0.06  -0.12    -0.04  -0.00   0.11
  15   1    -0.04  -0.03  -0.25     0.09  -0.04   0.00    -0.03   0.01   0.04
  16   1     0.10  -0.27  -0.09    -0.02  -0.08   0.02    -0.01   0.03   0.02
  17   1    -0.06  -0.05   0.02    -0.06  -0.02   0.17     0.02  -0.00  -0.02
  18   1    -0.01   0.02  -0.02    -0.07   0.12   0.08     0.00  -0.04   0.00
  19   1    -0.03   0.04  -0.06    -0.01   0.04  -0.16    -0.00  -0.00   0.00
  20   1     0.01   0.06  -0.02     0.14   0.12  -0.02     0.01  -0.02   0.00
  21   1     0.00  -0.03   0.02    -0.35  -0.12  -0.01    -0.06  -0.03  -0.00
  22   1     0.08   0.01   0.08     0.09   0.00   0.27     0.11  -0.03   0.07
  23   1     0.05   0.07   0.00     0.05   0.12  -0.25     0.07   0.07  -0.08
                      7                      8                      9
                        a                      a                      a 
 Frequencies --   226.9134               282.9114               353.7942
 Red. masses --    99.0000                99.0000                99.0000
 Frc consts  --    99.0000                99.0000                99.0000
 IR Inten    --    99.0000                99.0000                99.0000
 Raman Activ --     0.0000                 0.0000                 0.0000
 Depolar     --     0.0000                 0.0000                 0.0000
 Atom AN      X      Y      Z        X      Y      Z        X      Y      Z
   1   6    -0.21  -0.15   0.05    -0.30  -0.09   0.03     0.02  -0.12   0.07
   2   6    -0.06   0.18  -0.01    -0.17   0.11  -0.08     0.24   0.32  -0.16
   3   6    -0.08   0.18  -0.10    -0.06   0.03  -0.09     0.26   0.22  -0.11
   4   6    -0.11   0.06  -0.03    -0.06  -0.04   0.04    -0.05  -0.34   0.15
   5   6     0.06  -0.12   0.04     0.03   0.04   0.30    -0.16  -0.34   0.08
   6   6     0.06  -0.14   0.08     0.30   0.07  -0.29    -0.06   0.15   0.02
   7   6     0.31  -0.00  -0.03     0.25  -0.12   0.06    -0.21   0.15  -0.03
   8   1    -0.20  -0.12   0.13    -0.14  -0.04   0.02    -0.08  -0.05   0.02
   9   1    -0.04   0.09   0.02    -0.13  -0.02   0.01    -0.08  -0.05   0.02
  10   1     0.02  -0.18  -0.09    -0.03  -0.08   0.03     0.11  -0.12   0.08
  11   1    -0.00   0.08  -0.00    -0.04   0.04  -0.02     0.10   0.09  -0.05
  12   1     0.02   0.05   0.02    -0.05   0.03  -0.01     0.10   0.09  -0.04
  13   1    -0.02   0.03  -0.03     0.01  -0.01  -0.03     0.14   0.07  -0.03
  14   1    -0.01   0.06  -0.05    -0.00   0.02  -0.05     0.15   0.07  -0.02
  15   1    -0.05   0.01   0.01    -0.01   0.01  -0.04    -0.08  -0.11   0.04
  16   1    -0.06   0.03  -0.01    -0.06  -0.07   0.01    -0.05  -0.09   0.04
  17   1     0.04  -0.02  -0.00     0.04  -0.03   0.23    -0.12  -0.09  -0.05
  18   1     0.04  -0.04   0.01    -0.07   0.16   0.09    -0.06  -0.17   0.02
  19   1    -0.01  -0.00   0.05     0.04   0.01  -0.26    -0.07   0.06  -0.07
  20   1     0.01  -0.07   0.02     0.24   0.13  -0.07     0.04   0.08   0.01
  21   1    -0.28  -0.11  -0.01     0.30  -0.06   0.02    -0.05   0.08  -0.01
  22   1     0.36  -0.10   0.28    -0.07   0.03  -0.09    -0.11   0.07  -0.04
  23   1     0.24   0.24  -0.32    -0.01  -0.12   0.23    -0.08  -0.03  -0.01
                     10                     11                     12
                        a                      a                      a 
 Frequencies --   396.2588               487.2789               769.2259
 Red. masses --    99.0000                99.0000                99.0000
 Frc consts  --    99.0000                99.0000                99.0000
 IR Inten    --    99.0000                99.0000                99.0000
 Raman Activ --     0.0000                 0.0000                 0.0000
 Depolar     --     0.0000                 0.0000                 0.0000
 Atom AN      X      Y      Z        X      Y      Z        X      Y      Z
   1   6    -0.40  -0.03  -0.02     0.21   0.03   0.00    -0.00   0.01   0.00
   2   6    -0.27   0.05  -0.05     0.03  -0.19   0.12    -0.01   0.05   0.07
   3   6     0.08  -0.16   0.10    -0.33   0.13  -0.12     0.00   0.06   0.13
   4   6     0.27  -0.04  -0.01    -0.32   0.07  -0.13     0.00   0.10   0.12
   5   6     0.34  -0.03  -0.13     0.16  -0.29   0.12    -0.03   0.07   0.07
   6   6     0.28   0.15   0.21     0.35   0.13   0.14    -0.06  -0.03   0.03
   7   6    -0.22   0.11  -0.05    -0.06   0.09  -0.04     0.01  -0.04  -0.02
   8   1    -0.16  -0.02  -0.00     0.13   0.03  -0.00    -0.07   0.02  -0.07
   9   1    -0.15  -0.02  -0.01     0.13   0.03  -0.00     0.07  -0.06  -0.01
  10   1    -0.07  -0.05   0.02    -0.03   0.08  -0.06     0.01  -0.02  -0.02
  11   1    -0.11   0.01  -0.02     0.03  -0.04   0.03    -0.00  -0.26  -0.01
  12   1    -0.11   0.01  -0.01     0.03  -0.05   0.03     0.02   0.12  -0.23
  13   1     0.03  -0.03   0.03    -0.15   0.03  -0.03     0.09  -0.38  -0.00
  14   1     0.05  -0.04   0.04    -0.14   0.02  -0.02    -0.04   0.16  -0.34
  15   1     0.08  -0.02   0.01    -0.17   0.01  -0.04    -0.02   0.18  -0.36
  16   1     0.12   0.01  -0.00    -0.15  -0.00  -0.04     0.09  -0.38  -0.00
  17   1     0.04   0.03  -0.17     0.02  -0.05  -0.08     0.05   0.12  -0.23
  18   1     0.17  -0.13  -0.04     0.12  -0.17   0.03    -0.01  -0.24   0.01
  19   1     0.11   0.02   0.08     0.03   0.05  -0.11    -0.01  -0.04  -0.09
  20   1     0.05   0.02   0.06     0.22   0.11   0.05     0.07   0.05   0.01
  21   1    -0.14   0.10  -0.01    -0.08   0.08  -0.01     0.02   0.03  -0.00
  22   1    -0.14   0.09  -0.02    -0.11   0.10  -0.02     0.05  -0.06  -0.05
  23   1    -0.06  -0.12  -0.11    -0.02  -0.12  -0.09     0.01   0.04  -0.00
                     13                     14                     15
                        a                      a                      a 
 Frequencies --   786.7486               813.8895              1504.9932
 Red. masses --    99.0000                99.0000                99.0000
 Frc consts  --    99.0000                99.0000                99.0000
 IR Inten    --    99.0000                99.0000                99.0000
 Raman Activ --     0.0000                 0.0000                 0.0000
 Depolar     --     0.0000                 0.0000                 0.0000
 Atom AN      X      Y      Z        X      Y      Z        X      Y      Z
   1   6    -0.01  -0.01  -0.03    -0.02   0.03   0.03     0.02  -0.11  -0.18
   2   6     0.02  -0.08  -0.15    -0.01   0.06   0.11     0.00  -0.02  -0.04
   3   6     0.04  -0.08  -0.06     0.04  -0.04  -0.00     0.00   0.00   0.00
   4   6     0.03   0.11   0.05     0.08   0.02  -0.18    -0.00   0.00   0.00
   5   6    -0.05   0.11   0.13     0.02  -0.05  -0.00     0.00  -0.00   0.00
   6   6    -0.13  -0.08   0.08    -0.18  -0.14   0.15    -0.00  -0.00   0.00
   7   6    -0.02  -0.07  -0.01    -0.07  -0.01   0.07    -0.00  -0.00   0.00
   8   1     0.13  -0.03   0.13    -0.14   0.03  -0.11    -0.42  -0.15   0.13
   9   1    -0.17   0.12   0.01     0.12  -0.09  -0.01     0.40   0.25  -0.01
  10   1    -0.00   0.03   0.06     0.01  -0.04  -0.05    -0.06   0.37   0.61
  11   1    -0.05   0.36  -0.01     0.06  -0.20   0.01    -0.02   0.01  -0.01
  12   1     0.01  -0.16   0.32    -0.06   0.09  -0.18     0.02  -0.01   0.01
  13   1     0.07   0.21   0.00    -0.10   0.02   0.00    -0.02  -0.01  -0.00
  14   1    -0.07  -0.11   0.18     0.11  -0.01   0.04     0.02   0.00  -0.00
  15   1     0.13   0.12  -0.16     0.07  -0.08   0.18    -0.00  -0.00   0.00
  16   1    -0.04  -0.16  -0.00     0.01   0.25  -0.03     0.00  -0.01   0.00
  17   1     0.03   0.14  -0.25    -0.01  -0.04   0.08    -0.00   0.00  -0.00
  18   1     0.04  -0.27   0.02     0.12   0.09   0.00    -0.00   0.01   0.00
  19   1    -0.04  -0.09  -0.24    -0.08  -0.13  -0.39     0.00  -0.00   0.00
  20   1     0.16   0.16   0.04     0.19   0.32   0.07     0.00   0.00   0.00
  21   1     0.04   0.12   0.00    -0.01   0.30   0.03     0.01   0.00   0.00
  22   1     0.11  -0.15  -0.13     0.14  -0.21  -0.22    -0.00   0.00   0.00
  23   1     0.02   0.10  -0.01     0.03   0.12  -0.05     0.00   0.00  -0.01
                     16                     17                     18
                        a                      a                      a 
 Frequencies --   870.2912              1510.9203              1508.2267
 Red. masses --    99.0000                99.0000                99.0000
 Frc consts  --    99.0000                99.0000                99.0000
 IR Inten    --    99.0000                99.0000                99.0000
 Raman Activ --     0.0000                 0.0000                 0.0000
 Depolar     --     0.0000                 0.0000                 0.0000
 Atom AN      X      Y      Z        X      Y      Z        X      Y      Z
   1   6    -0.01  -0.06  -0.10     0.00   0.00  -0.00    -0.07  -0.15   0.08
   2   6     0.01  -0.09  -0.10     0.00   0.00  -0.00    -0.03  -0.07   0.04
   3   6    -0.01   0.14   0.19    -0.01  -0.00  -0.01     0.03  -0.05   0.03
   4   6     0.03   0.05   0.01     0.01   0.01   0.00    -0.01   0.04  -0.02
   5   6     0.10  -0.20  -0.17    -0.00   0.01  -0.00     0.01  -0.04   0.03
   6   6    -0.05  -0.08   0.01    -0.04   0.01  -0.06    -0.03  -0.01  -0.01
   7   6    -0.04   0.09   0.10    -0.06   0.07  -0.19    -0.07  -0.03   0.01
   8   1     0.23  -0.05   0.17    -0.00  -0.00   0.01     0.09   0.22  -0.50
   9   1    -0.24   0.16  -0.00     0.00  -0.01  -0.00     0.02   0.54   0.04
  10   1    -0.03   0.07   0.09    -0.00   0.00  -0.00     0.18  -0.18   0.11
  11   1    -0.20   0.13  -0.01     0.00  -0.01  -0.00     0.01   0.09   0.01
  12   1     0.18  -0.06   0.14     0.00  -0.00   0.01     0.02   0.03  -0.08
  13   1     0.11  -0.25   0.02     0.00  -0.01  -0.00    -0.04   0.16   0.01
  14   1    -0.10   0.13  -0.23     0.01  -0.01   0.02    -0.02   0.06  -0.16
  15   1    -0.20  -0.01  -0.03    -0.05  -0.01   0.01     0.02  -0.04   0.12
  16   1     0.22   0.00  -0.00    -0.01  -0.01  -0.00     0.02  -0.12  -0.01
  17   1     0.06  -0.15   0.26     0.00  -0.01   0.02    -0.00   0.04  -0.11
  18   1    -0.00   0.27  -0.03     0.02  -0.02   0.00    -0.02   0.11   0.00
  19   1    -0.03  -0.04  -0.10     0.02   0.01   0.08     0.02  -0.01   0.03
  20   1    -0.04   0.14   0.01     0.06   0.02  -0.01     0.03   0.02   0.00
  21   1    -0.06   0.19   0.04    -0.01   0.35   0.01     0.25   0.08   0.00
  22   1     0.01  -0.03  -0.07     0.46  -0.18   0.46    -0.01   0.06   0.15
  23   1     0.01   0.02  -0.06    -0.20  -0.46   0.31     0.05  -0.01  -0.18
                     19                     20                     21
                        a                      a                      a 
 Frequencies --   960.0685              1507.5724              1027.4728
 Red. masses --    99.0000                99.0000                99.0000
 Frc consts  --    99.0000                99.0000                99.0000
 IR Inten    --    99.0000                99.0000                99.0000
 Raman Activ --     0.0000                 0.0000                 0.0000
 Depolar     --     0.0000                 0.0000                 0.0000
 Atom AN      X      Y      Z        X      Y      Z        X      Y      Z
   1   6     0.06   0.11   0.12    -0.04  -0.07   0.04    -0.04  -0.01  -0.10
   2   6     0.00   0.00  -0.09    -0.01  -0.09   0.05     0.03   0.01   0.13
   3   6    -0.04  -0.12  -0.08     0.01   0.01  -0.00     0.10  -0.07  -0.05
   4   6    -0.04   0.13   0.18     0.01  -0.08   0.05     0.03   0.14  -0.04
   5   6     0.11  -0.15  -0.13    -0.01   0.06  -0.04    -0.01  -0.12   0.07
   6   6     0.01  -0.11  -0.10     0.06   0.02   0.02    -0.03  -0.14  -0.17
   7   6    -0.01   0.13   0.15     0.14   0.07  -0.02     0.10   0.13   0.17
   8   1    -0.26   0.04  -0.14     0.04   0.11  -0.24     0.07  -0.02   0.06
   9   1     0.18  -0.15   0.01     0.02   0.27   0.02    -0.15   0.06  -0.01
  10   1     0.11  -0.12  -0.04     0.10  -0.09   0.07     0.01   0.01   0.05
  11   1     0.22   0.11  -0.02    -0.02   0.19   0.02    -0.15  -0.13   0.02
  12   1    -0.29  -0.08   0.04     0.01   0.07  -0.18     0.13   0.06  -0.06
  13   1     0.19   0.13  -0.01     0.00  -0.03  -0.00    -0.25   0.02  -0.01
  14   1    -0.26  -0.12   0.10     0.00  -0.01   0.03     0.26  -0.01   0.06
  15   1    -0.10   0.10  -0.17    -0.02   0.08  -0.21     0.27   0.09  -0.05
  16   1     0.08  -0.19   0.03    -0.03   0.22   0.02    -0.28  -0.05  -0.01
  17   1     0.21  -0.07   0.15     0.01  -0.05   0.16     0.30   0.03   0.01
  18   1    -0.16   0.12  -0.03     0.03  -0.18  -0.01    -0.30  -0.10   0.01
  19   1     0.02  -0.04  -0.00    -0.03   0.02  -0.07    -0.07   0.03   0.01
  20   1    -0.16   0.09  -0.02    -0.07  -0.05  -0.01    -0.19   0.06  -0.04
  21   1    -0.09   0.19   0.05    -0.50  -0.14  -0.01    -0.16   0.20   0.05
  22   1    -0.04   0.03  -0.04     0.04  -0.12  -0.27    -0.12   0.13  -0.00
  23   1     0.02  -0.04  -0.08    -0.11  -0.01   0.38     0.03  -0.21  -0.14
                     22                     23                     24
                        a                      a                      a 
 Frequencies --  1184.3051              1493.5072               923.5425
 Red. masses --    99.0000                99.0000                99.0000
 Frc consts  --    99.0000                99.0000                99.0000
 IR Inten    --    99.0000                99.0000                99.0000
 Raman Activ --     0.0000                 0.0000                 0.0000
 Depolar     --     0.0000                 0.0000                 0.0000
 Atom AN      X      Y      Z        X      Y      Z        X      Y      Z
   1   6    -0.02   0.01   0.10     0.00  -0.02   0.01     0.20   0.05  -0.03
   2   6     0.03  -0.01  -0.18    -0.01   0.07  -0.05     0.03   0.17  -0.10
   3   6    -0.01   0.03   0.22    -0.03  -0.01  -0.00    -0.12  -0.17   0.12
   4   6     0.05  -0.07  -0.26     0.02  -0.18   0.11    -0.18  -0.10   0.02
   5   6     0.07   0.08   0.36     0.03   0.03  -0.01    -0.27   0.25  -0.19
   6   6    -0.09  -0.01  -0.39     0.04   0.07   0.09     0.21   0.12   0.21
   7   6     0.07   0.00   0.23    -0.07  -0.04  -0.00     0.22  -0.28   0.02
   8   1    -0.04   0.03  -0.06    -0.00   0.03  -0.06    -0.06  -0.03   0.04
   9   1     0.12  -0.04   0.02    -0.01   0.07   0.01    -0.12  -0.02  -0.00
  10   1    -0.03   0.00  -0.05     0.01  -0.01   0.01     0.23  -0.13   0.12
  11   1     0.03   0.12  -0.03     0.04  -0.21  -0.02    -0.07   0.03  -0.03
  12   1    -0.01  -0.05   0.07     0.02  -0.08   0.20    -0.01   0.04  -0.02
  13   1     0.06  -0.14   0.04     0.02  -0.01  -0.00    -0.04  -0.08   0.03
  14   1    -0.11   0.05  -0.09     0.02  -0.00   0.01    -0.02  -0.03   0.00
  15   1    -0.11  -0.11   0.13    -0.04   0.17  -0.45    -0.02  -0.03   0.03
  16   1     0.00   0.17  -0.05    -0.06   0.48   0.04    -0.00   0.01   0.01
  17   1    -0.14   0.07  -0.15    -0.01  -0.03   0.08    -0.15   0.05  -0.04
  18   1     0.14  -0.21   0.08    -0.00  -0.09   0.00    -0.09   0.08  -0.05
  19   1     0.06  -0.03   0.08    -0.05  -0.05  -0.30     0.10  -0.02   0.03
  20   1    -0.17  -0.11  -0.11    -0.20  -0.23  -0.02    -0.04   0.15   0.06
  21   1    -0.13   0.25   0.07     0.25   0.10   0.00    -0.11   0.17   0.02
  22   1    -0.04  -0.01  -0.10     0.00   0.05   0.17    -0.03  -0.05  -0.12
  23   1     0.05  -0.11  -0.14     0.05  -0.02  -0.17     0.08  -0.30  -0.23
                     25                     26                     27
                        a                      a                      a 
 Frequencies --  1218.0537              1496.8759              1500.7035
 Red. masses --    99.0000                99.0000                99.0000
 Frc consts  --    99.0000                99.0000                99.0000
 IR Inten    --    99.0000                99.0000                99.0000
 Raman Activ --     0.0000                 0.0000                 0.0000
 Depolar     --     0.0000                 0.0000                 0.0000
 Atom AN      X      Y      Z        X      Y      Z        X      Y      Z
   1   6    -0.02   0.16   0.24    -0.00   0.03  -0.02    -0.01   0.01  -0.01
   2   6     0.03  -0.22  -0.33     0.03  -0.09   0.06     0.01  -0.16   0.10
   3   6    -0.04   0.16   0.21     0.04  -0.08   0.05    -0.01   0.13  -0.08
   4   6     0.01  -0.08  -0.09    -0.05   0.07  -0.05     0.01  -0.03   0.02
   5   6    -0.02  -0.01  -0.08    -0.01   0.11  -0.07     0.00   0.01  -0.01
   6   6     0.04  -0.00   0.17     0.09   0.11   0.11    -0.04  -0.02  -0.02
   7   6    -0.02   0.01  -0.12    -0.01  -0.04  -0.02    -0.07  -0.03   0.01
   8   1    -0.23   0.08  -0.15    -0.01  -0.04   0.10     0.02  -0.01   0.04
   9   1     0.22  -0.15   0.03     0.01  -0.11  -0.01     0.03  -0.04  -0.00
  10   1     0.02  -0.07  -0.10    -0.03   0.03  -0.02     0.01  -0.01   0.01
  11   1    -0.15   0.20  -0.06    -0.05   0.25   0.02    -0.06   0.46   0.04
  12   1     0.14  -0.14   0.18    -0.03   0.09  -0.24    -0.01   0.17  -0.43
  13   1    -0.10  -0.17   0.03    -0.06   0.23   0.02     0.06  -0.40  -0.04
  14   1     0.14   0.13  -0.13    -0.03   0.08  -0.22     0.02  -0.15   0.37
  15   1     0.23  -0.01   0.05     0.04  -0.08   0.21    -0.02   0.04  -0.11
  16   1    -0.19   0.04  -0.01     0.07  -0.22  -0.02    -0.03   0.12   0.01
  17   1     0.20   0.02   0.03     0.02  -0.08   0.27    -0.01  -0.02   0.05
  18   1    -0.20   0.00  -0.02     0.06  -0.28  -0.01     0.00  -0.05  -0.00
  19   1    -0.02   0.00  -0.04    -0.06  -0.06  -0.41     0.02  -0.00   0.08
  20   1     0.00   0.11   0.05    -0.28  -0.32  -0.03     0.06   0.06   0.01
  21   1     0.06  -0.12  -0.04     0.07   0.09   0.00     0.24   0.06   0.00
  22   1     0.02   0.02   0.06    -0.00   0.04   0.10    -0.02   0.05   0.12
  23   1    -0.03   0.02   0.07     0.01   0.01  -0.02     0.06   0.01  -0.19
                     28                     29                     30
                        a                      a                      a 
 Frequencies --  1491.3721              1499.9563               947.9217
 Red. masses --    99.0000                99.0000                99.0000
 Frc consts  --    99.0000                99.0000                99.0000
 IR Inten    --    99.0000                99.0000                99.0000
 Raman Activ --     0.0000                 0.0000                 0.0000
 Depolar     --     0.0000                 0.0000                 0.0000
 Atom AN      X      Y      Z        X      Y      Z        X      Y      Z
   1   6     0.00  -0.00   0.00    -0.01  -0.04   0.03    -0.27  -0.12   0.08
   2   6     0.01   0.02  -0.01    -0.05   0.10  -0.06    -0.03  -0.18   0.10
   3   6     0.01  -0.06   0.04    -0.02   0.17  -0.10     0.12   0.27  -0.18
   4   6    -0.02  -0.02   0.01    -0.01   0.11  -0.07     0.06  -0.13   0.14
   5   6    -0.02   0.17  -0.13    -0.03   0.09  -0.06    -0.12   0.12  -0.12
   6   6    -0.09  -0.08  -0.11     0.03   0.04   0.04     0.08   0.08   0.07
   7   6    -0.04  -0.03   0.02     0.01  -0.02  -0.00     0.11  -0.16   0.05
   8   1    -0.01  -0.00  -0.00     0.02   0.07  -0.15     0.16   0.05  -0.05
   9   1    -0.00   0.00   0.00    -0.01   0.16   0.01     0.24   0.03   0.01
  10   1    -0.00   0.00  -0.00     0.05  -0.05   0.03    -0.39   0.23  -0.21
  11   1     0.00  -0.06  -0.00     0.07  -0.28  -0.03     0.17  -0.01   0.03
  12   1    -0.00  -0.02   0.05     0.03  -0.10   0.27     0.08  -0.04   0.03
  13   1    -0.02   0.17   0.02     0.07  -0.42  -0.04     0.13   0.12  -0.05
  14   1    -0.00   0.06  -0.16     0.03  -0.15   0.40     0.06   0.06  -0.02
  15   1     0.02   0.03  -0.07     0.03  -0.10   0.26    -0.00  -0.02  -0.01
  16   1    -0.00   0.07   0.00     0.05  -0.27  -0.02     0.01  -0.07   0.03
  17   1    -0.00  -0.17   0.48     0.02  -0.08   0.24    -0.07   0.01  -0.00
  18   1     0.09  -0.50  -0.02     0.05  -0.25  -0.01    -0.14   0.04  -0.03
  19   1     0.06   0.06   0.37    -0.02  -0.02  -0.13     0.09  -0.04   0.03
  20   1     0.26   0.28   0.03    -0.09  -0.10  -0.01    -0.11   0.13   0.02
  21   1     0.12   0.00  -0.00    -0.01   0.02   0.00    -0.08   0.16   0.02
  22   1    -0.04   0.03   0.02    -0.02   0.01   0.00     0.00  -0.06  -0.10
  23   1     0.04   0.04  -0.11     0.00   0.02   0.01     0.06  -0.16  -0.15
                     31                     32                     33
                        a                      a                      a 
 Frequencies --  1008.8463              1094.0740              1146.1105
 Red. masses --    99.0000                99.0000                99.0000
 Frc consts  --    99.0000                99.0000                99.0000
 IR Inten    --    99.0000                99.0000                99.0000
 Raman Activ --     0.0000                 0.0000                 0.0000
 Depolar     --     0.0000                 0.0000                 0.0000
 Atom AN      X      Y      Z        X      Y      Z        X      Y      Z
   1   6    -0.13   0.06  -0.01     0.01   0.14  -0.09    -0.02  -0.16   0.09
   2   6     0.09  -0.10   0.02     0.05  -0.14   0.10     0.00   0.27  -0.15
   3   6     0.21  -0.04   0.07    -0.21   0.22  -0.16     0.01  -0.28   0.15
   4   6     0.10   0.33  -0.18     0.46   0.01   0.06     0.02   0.34  -0.17
   5   6    -0.27  -0.19   0.08     0.04  -0.21   0.15    -0.18  -0.30   0.06
   6   6    -0.14   0.00   0.15    -0.09   0.30  -0.00     0.23   0.17   0.02
   7   6     0.24  -0.08  -0.10    -0.01  -0.24  -0.07    -0.16  -0.10  -0.01
   8   1    -0.09   0.02  -0.04    -0.14  -0.00   0.00     0.16   0.01  -0.00
   9   1     0.01  -0.02  -0.01    -0.14  -0.01  -0.02     0.15   0.03   0.02
  10   1    -0.04   0.00  -0.03     0.14  -0.09   0.07    -0.15   0.09  -0.07
  11   1     0.06   0.02   0.01    -0.05  -0.05   0.02     0.07   0.07  -0.04
  12   1    -0.06  -0.06   0.04    -0.03  -0.04   0.02     0.08   0.09  -0.04
  13   1     0.13  -0.01   0.02    -0.23   0.04  -0.04    -0.02  -0.05   0.04
  14   1    -0.06  -0.02  -0.00    -0.21   0.03  -0.04     0.01  -0.07   0.04
  15   1    -0.03   0.08  -0.06     0.11   0.01   0.00     0.09   0.11  -0.07
  16   1     0.17   0.11  -0.05     0.07  -0.02   0.01     0.04   0.06  -0.05
  17   1    -0.10  -0.06   0.03    -0.15  -0.09   0.05    -0.09  -0.10   0.07
  18   1     0.08   0.00   0.02    -0.14  -0.07   0.04    -0.24  -0.04   0.02
  19   1    -0.33   0.23  -0.08     0.01   0.08   0.10     0.13   0.01   0.13
  20   1     0.16  -0.01   0.04    -0.21   0.10  -0.00    -0.07  -0.04  -0.00
  21   1    -0.06  -0.14  -0.03     0.03  -0.00  -0.02     0.08   0.03   0.00
  22   1    -0.17   0.20   0.10     0.08  -0.15  -0.09     0.13  -0.18  -0.07
  23   1     0.02  -0.31  -0.08     0.02   0.01  -0.03    -0.01   0.18   0.05
                     34                     35                     36
                        a                      a                      a 
 Frequencies --  1248.6202              1084.0676              1262.9880
 Red. masses --    99.0000                99.0000                99.0000
 Frc consts  --    99.0000                99.0000                99.0000
 IR Inten    --    99.0000                99.0000                99.0000
 Raman Activ --     0.0000                 0.0000                 0.0000
 Depolar     --     0.0000                 0.0000                 0.0000
 Atom AN      X      Y      Z        X      Y      Z        X      Y      Z
   1   6    -0.02  -0.11   0.01    -0.34   0.26  -0.19    -0.03   0.04   0.19
   2   6     0.07   0.15  -0.04     0.45  -0.24   0.18     0.07   0.03  -0.11
   3   6     0.14  -0.05   0.06     0.26  -0.07   0.09     0.11  -0.10  -0.13
   4   6     0.19   0.02  -0.06    -0.27   0.07  -0.08     0.06   0.13   0.23
   5   6     0.10   0.08   0.03    -0.01   0.01  -0.02     0.05  -0.01  -0.12
   6   6    -0.10  -0.15   0.14     0.14   0.06  -0.02    -0.04  -0.01  -0.09
   7   6     0.11   0.13  -0.17    -0.10  -0.02   0.01     0.01  -0.01   0.10
   8   1     0.09  -0.01   0.01    -0.23   0.03  -0.04    -0.09   0.05  -0.10
   9   1     0.02   0.04   0.01    -0.22   0.02  -0.05     0.16  -0.07   0.03
  10   1    -0.09   0.06  -0.02     0.02  -0.03   0.02    -0.05  -0.00  -0.08
  11   1    -0.05  -0.01  -0.01     0.10  -0.06   0.05    -0.45  -0.03  -0.02
  12   1    -0.17   0.01  -0.03     0.09  -0.08   0.06     0.27   0.03   0.03
  13   1    -0.20  -0.06   0.01     0.02  -0.05   0.02    -0.27   0.04  -0.02
  14   1    -0.29  -0.06  -0.00    -0.02  -0.04   0.02    -0.05  -0.08   0.08
  15   1    -0.31  -0.07   0.03    -0.18  -0.00  -0.01    -0.13   0.07  -0.10
  16   1    -0.24  -0.01  -0.01    -0.16   0.01  -0.02    -0.17  -0.17   0.04
  17   1    -0.19  -0.02  -0.01    -0.06  -0.01  -0.01    -0.34  -0.10   0.04
  18   1    -0.23  -0.08   0.00    -0.04   0.01  -0.01     0.25   0.13  -0.02
  19   1     0.19  -0.27  -0.12     0.16  -0.08   0.06    -0.04   0.03  -0.01
  20   1    -0.15   0.28   0.06    -0.04  -0.02  -0.01     0.13  -0.17  -0.04
  21   1     0.01  -0.18  -0.05     0.05   0.03   0.00    -0.04   0.09   0.03
  22   1    -0.08   0.18   0.14     0.08  -0.10  -0.04    -0.01  -0.02  -0.05
  23   1    -0.02  -0.04   0.06    -0.00   0.14   0.04     0.02  -0.02  -0.05
                     37                     38                     39
                        a                      a                      a 
 Frequencies --  1114.7989              1135.3852              1294.6280
 Red. masses --    99.0000                99.0000                99.0000
 Frc consts  --    99.0000                99.0000                99.0000
 IR Inten    --    99.0000                99.0000                99.0000
 Raman Activ --     0.0000                 0.0000                 0.0000
 Depolar     --     0.0000                 0.0000                 0.0000
 Atom AN      X      Y      Z        X      Y      Z        X      Y      Z
   1   6     0.22  -0.06   0.06     0.09   0.04  -0.00     0.01  -0.03  -0.09
   2   6    -0.38  -0.16   0.05    -0.14  -0.16   0.06    -0.03  -0.05  -0.06
   3   6     0.45   0.13  -0.03     0.08   0.22  -0.10    -0.04   0.09   0.17
   4   6    -0.18   0.15  -0.10     0.20   0.05  -0.07    -0.02   0.11   0.12
   5   6     0.08  -0.06   0.05    -0.40   0.01  -0.04     0.00  -0.12  -0.09
   6   6    -0.04   0.21  -0.01     0.32  -0.31  -0.01    -0.04  -0.02  -0.06
   7   6    -0.02  -0.16  -0.05    -0.09   0.23   0.15     0.04   0.06   0.01
   8   1     0.02  -0.03   0.03    -0.06  -0.01   0.01     0.05  -0.03   0.04
   9   1     0.02  -0.05   0.02    -0.04  -0.03  -0.00    -0.07   0.03  -0.02
  10   1     0.11  -0.07   0.05     0.10  -0.06   0.04     0.01  -0.00   0.02
  11   1    -0.29  -0.08   0.01    -0.12  -0.04   0.02     0.37   0.10  -0.01
  12   1    -0.29  -0.08   0.02    -0.14  -0.06   0.03    -0.29  -0.08   0.03
  13   1     0.19   0.05  -0.01     0.00   0.04  -0.03    -0.12  -0.11   0.03
  14   1     0.18   0.05  -0.01    -0.03   0.06  -0.05     0.21   0.11  -0.07
  15   1    -0.18   0.02  -0.03     0.03   0.00   0.00     0.34   0.12  -0.07
  16   1    -0.20   0.01  -0.03     0.12   0.07  -0.02    -0.29  -0.11   0.03
  17   1    -0.01  -0.02   0.02    -0.22  -0.01  -0.04    -0.35  -0.13   0.05
  18   1     0.00   0.00   0.01    -0.22  -0.06  -0.01     0.33   0.13  -0.01
  19   1     0.03   0.03   0.06     0.17  -0.16  -0.00     0.13  -0.14  -0.03
  20   1    -0.15   0.08  -0.00     0.23  -0.23  -0.01    -0.05   0.00  -0.02
  21   1     0.03  -0.01  -0.01    -0.02   0.10   0.04    -0.02  -0.01   0.00
  22   1     0.06  -0.11  -0.06    -0.00   0.05   0.03    -0.02   0.04   0.01
  23   1     0.01   0.04  -0.01    -0.01   0.08   0.04    -0.00  -0.06  -0.02
                     40                     41                     42
                        a                      a                      a 
 Frequencies --  1277.9391              1285.1174              1324.2776
 Red. masses --    99.0000                99.0000                99.0000
 Frc consts  --    99.0000                99.0000                99.0000
 IR Inten    --    99.0000                99.0000                99.0000
 Raman Activ --     0.0000                 0.0000                 0.0000
 Depolar     --     0.0000                 0.0000                 0.0000
 Atom AN      X      Y      Z        X      Y      Z        X      Y      Z
   1   6    -0.01  -0.11  -0.03    -0.00  -0.04  -0.02     0.03   0.10  -0.06
   2   6     0.11   0.06  -0.08     0.02   0.09   0.11    -0.28  -0.08   0.02
   3   6     0.12   0.07   0.10     0.03   0.07   0.09    -0.12  -0.10   0.05
   4   6     0.09  -0.08   0.04     0.04  -0.11  -0.12     0.18   0.09  -0.04
   5   6     0.03   0.10  -0.12    -0.00  -0.01  -0.11     0.24   0.09  -0.05
   6   6     0.03   0.05   0.02     0.05  -0.01   0.01    -0.03  -0.06   0.04
   7   6    -0.08  -0.11   0.10    -0.04  -0.01   0.03     0.00  -0.03   0.02
   8   1     0.09  -0.02   0.02     0.02  -0.01   0.02    -0.01  -0.01   0.05
   9   1    -0.03   0.05  -0.00    -0.01   0.03   0.00    -0.00  -0.05  -0.01
  10   1    -0.07   0.05  -0.02    -0.02   0.03   0.02     0.12  -0.08   0.06
  11   1     0.13   0.06  -0.02    -0.13  -0.09   0.02     0.34   0.05   0.01
  12   1    -0.41  -0.08   0.01     0.04   0.06  -0.05     0.35   0.05   0.01
  13   1    -0.38  -0.13   0.02     0.42   0.02   0.02     0.20   0.04   0.01
  14   1    -0.07   0.03  -0.04    -0.55  -0.05  -0.04     0.19   0.03  -0.01
  15   1    -0.19  -0.06   0.02     0.37  -0.00   0.05    -0.26  -0.04   0.01
  16   1    -0.16  -0.03   0.01    -0.47   0.01  -0.02    -0.28  -0.06  -0.01
  17   1     0.18   0.05  -0.00    -0.01  -0.02   0.02    -0.28  -0.05  -0.00
  18   1    -0.16   0.02  -0.03     0.03   0.06  -0.03    -0.32  -0.04  -0.02
  19   1    -0.29   0.30   0.04    -0.11   0.10  -0.00    -0.17   0.11  -0.04
  20   1     0.27  -0.25  -0.01     0.06  -0.07  -0.00     0.12  -0.08   0.01
  21   1     0.00   0.11   0.03     0.01   0.03   0.01    -0.02   0.05   0.01
  22   1     0.05  -0.12  -0.09     0.03  -0.04  -0.02    -0.02   0.00  -0.01
  23   1     0.02   0.05  -0.03    -0.01  -0.01  -0.00     0.01   0.03   0.01
                     43                     44                     45
                        a                      a                      a 
 Frequencies --  1353.6804              1367.9469              1379.4576
 Red. masses --    99.0000                99.0000                99.0000
 Frc consts  --    99.0000                99.0000                99.0000
 IR Inten    --    99.0000                99.0000                99.0000
 Raman Activ --     0.0000                 0.0000                 0.0000
 Depolar     --     0.0000                 0.0000                 0.0000
 Atom AN      X      Y      Z        X      Y      Z        X      Y      Z
   1   6     0.00   0.01  -0.01     0.02   0.07  -0.04    -0.04  -0.02   0.01
   2   6    -0.05  -0.00   0.00    -0.33  -0.03  -0.02     0.23   0.02   0.01
   3   6     0.02  -0.01   0.01     0.24   0.00   0.02    -0.36  -0.07   0.01
   4   6     0.01   0.00  -0.04     0.16  -0.02   0.03     0.38   0.07  -0.01
   5   6     0.03  -0.11  -0.05    -0.35  -0.04   0.00    -0.28  -0.04  -0.01
   6   6    -0.39   0.36   0.05     0.11   0.01  -0.02     0.04   0.04   0.00
   7   6     0.11   0.04   0.07    -0.03   0.01  -0.01    -0.01  -0.01   0.00
   8   1     0.00  -0.00   0.01     0.02  -0.01   0.05     0.01   0.01  -0.02
   9   1     0.00  -0.01  -0.00     0.03  -0.05  -0.01     0.01   0.03   0.00
  10   1     0.01  -0.01   0.01     0.09  -0.06   0.05    -0.02   0.01  -0.01
  11   1     0.04   0.00   0.00     0.31   0.04  -0.00    -0.17  -0.01   0.00
  12   1     0.06   0.01  -0.00     0.32   0.05   0.02    -0.17  -0.03  -0.02
  13   1     0.02   0.00   0.00    -0.24  -0.02   0.01     0.30   0.06   0.00
  14   1    -0.05  -0.01  -0.00    -0.23  -0.04  -0.02     0.30   0.05  -0.01
  15   1     0.00  -0.01   0.00    -0.17  -0.03  -0.02    -0.32  -0.05   0.01
  16   1    -0.03   0.01  -0.01    -0.15  -0.01   0.01    -0.32  -0.06   0.00
  17   1     0.21  -0.01   0.07     0.33   0.07   0.01     0.23   0.04   0.03
  18   1    -0.13  -0.00  -0.01     0.36   0.04   0.01     0.22   0.02   0.00
  19   1     0.38  -0.35  -0.03     0.06  -0.02   0.03     0.06  -0.04   0.00
  20   1     0.39  -0.34  -0.01    -0.11   0.07  -0.00    -0.03  -0.00  -0.00
  21   1    -0.04  -0.09   0.01     0.03  -0.02  -0.01     0.02  -0.01  -0.00
  22   1     0.01  -0.02  -0.09     0.02  -0.01  -0.00    -0.01   0.00  -0.01
  23   1     0.03  -0.19  -0.10     0.00   0.02  -0.01     0.01   0.03  -0.02
                     46                     47                     48
                        a                      a                      a 
 Frequencies --  1415.9533              1416.4636              2954.1192
 Red. masses --    99.0000                99.0000                99.0000
 Frc consts  --    99.0000                99.0000                99.0000
 IR Inten    --    99.0000                99.0000                99.0000
 Raman Activ --     0.0000                 0.0000                 0.0000
 Depolar     --     0.0000                 0.0000                 0.0000
 Atom AN      X      Y      Z        X      Y      Z        X      Y      Z
   1   6     0.01  -0.00   0.00    -0.40   0.12  -0.12     0.00  -0.00  -0.00
   2   6     0.00  -0.00  -0.00     0.08   0.02  -0.00    -0.01   0.06   0.09
   3   6    -0.01  -0.01  -0.01    -0.00   0.02  -0.01     0.02  -0.10  -0.18
   4   6    -0.00   0.02  -0.00    -0.03  -0.01   0.01    -0.01   0.04   0.12
   5   6     0.02   0.05   0.01     0.02   0.00   0.00     0.01  -0.05  -0.06
   6   6     0.08  -0.07   0.00    -0.00  -0.00   0.00     0.01   0.01  -0.00
   7   6    -0.16   0.37   0.16    -0.00   0.01   0.00    -0.00  -0.00   0.00
   8   1    -0.01   0.00  -0.00     0.47   0.02   0.21    -0.01   0.02   0.01
   9   1    -0.01   0.00   0.00     0.49  -0.13  -0.04     0.00  -0.00   0.02
  10   1    -0.01   0.00  -0.00     0.33  -0.31   0.22     0.00  -0.00  -0.00
  11   1    -0.00   0.00  -0.00    -0.07  -0.06  -0.00    -0.00   0.03  -0.26
  12   1    -0.00  -0.00  -0.00    -0.08  -0.03   0.04     0.05  -0.26  -0.10
  13   1     0.00   0.01  -0.00    -0.01   0.01  -0.00     0.01  -0.05   0.49
  14   1     0.02   0.00   0.00    -0.01   0.01  -0.00    -0.08   0.44   0.17
  15   1    -0.05  -0.01   0.03     0.03   0.00  -0.00     0.03  -0.21  -0.07
  16   1     0.02  -0.03  -0.00     0.03   0.01   0.00    -0.01   0.03  -0.41
  17   1    -0.06  -0.01   0.02    -0.01  -0.00  -0.00    -0.04   0.20   0.07
  18   1    -0.01  -0.04   0.00    -0.01  -0.00  -0.00    -0.00  -0.01   0.18
  19   1    -0.09   0.06  -0.05    -0.00   0.00  -0.00    -0.03  -0.03   0.01
  20   1    -0.10   0.03  -0.00     0.00   0.00   0.00     0.00   0.00  -0.01
  21   1     0.20  -0.48  -0.02     0.00  -0.01  -0.00    -0.00   0.00  -0.01
  22   1     0.30  -0.31  -0.26     0.01  -0.01  -0.00     0.00   0.01  -0.00
  23   1    -0.01  -0.41  -0.28    -0.00  -0.01  -0.00    -0.00  -0.00  -0.00
                     49                     50                     51
                        a                      a                      a 
 Frequencies --  2956.4408              2964.6768              2961.3373
 Red. masses --    99.0000                99.0000                99.0000
 Frc consts  --    99.0000                99.0000                99.0000
 IR Inten    --    99.0000                99.0000                99.0000
 Raman Activ --     0.0000                 0.0000                 0.0000
 Depolar     --     0.0000                 0.0000                 0.0000
 Atom AN      X      Y      Z        X      Y      Z        X      Y      Z
   1   6     0.00  -0.00  -0.00    -0.00   0.01   0.02     0.00  -0.00  -0.00
   2   6    -0.01   0.05   0.08     0.02  -0.09  -0.17    -0.00   0.03   0.04
   3   6     0.01  -0.06  -0.09     0.01  -0.03  -0.04     0.00  -0.02  -0.00
   4   6     0.00  -0.03  -0.08    -0.00   0.03   0.15     0.00  -0.00  -0.06
   5   6    -0.03   0.14   0.18    -0.02   0.10   0.06    -0.01   0.02  -0.05
   6   6    -0.01   0.00  -0.03    -0.04  -0.04   0.01    -0.13  -0.15   0.19
   7   6    -0.00  -0.00  -0.00     0.00   0.00  -0.00     0.01   0.01  -0.01
   8   1    -0.00   0.02   0.01     0.01  -0.05  -0.02    -0.00   0.01   0.00
   9   1     0.00  -0.00   0.02    -0.00   0.01  -0.06     0.00  -0.00   0.01
  10   1     0.00  -0.00  -0.00     0.00   0.00   0.00     0.00  -0.00  -0.00
  11   1    -0.00   0.02  -0.22     0.01  -0.04   0.46    -0.00   0.01  -0.11
  12   1     0.04  -0.20  -0.08    -0.07   0.38   0.15     0.02  -0.11  -0.04
  13   1     0.00  -0.02   0.21     0.00  -0.01   0.11    -0.00  -0.00  -0.02
  14   1    -0.04   0.24   0.10    -0.02   0.12   0.05    -0.01   0.06   0.03
  15   1    -0.02   0.15   0.05     0.02  -0.13  -0.04    -0.00   0.03   0.00
  16   1     0.00  -0.02   0.25    -0.01   0.03  -0.50     0.01  -0.01   0.19
  17   1     0.11  -0.55  -0.19     0.08  -0.38  -0.14     0.02  -0.10  -0.05
  18   1     0.00   0.03  -0.48    -0.00   0.01  -0.05    -0.00  -0.00   0.26
  19   1     0.02   0.03  -0.02     0.16   0.18  -0.06     0.45   0.50  -0.14
  20   1    -0.00  -0.02   0.16    -0.01  -0.01   0.03     0.00   0.03  -0.53
  21   1     0.00  -0.00   0.01     0.00  -0.00   0.02     0.00  -0.00   0.05
  22   1     0.00   0.00  -0.00    -0.01  -0.01   0.00    -0.04  -0.05   0.02
  23   1     0.00  -0.00   0.00    -0.01   0.00  -0.00    -0.01   0.01  -0.01
                     52                     53                     54
                        a                      a                      a 
 Frequencies --  3029.6823              2972.1781              2979.3424
 Red. masses --    99.0000                99.0000                99.0000
 Frc consts  --    99.0000                99.0000                99.0000
 IR Inten    --    99.0000                99.0000                99.0000
 Raman Activ --     0.0000                 0.0000                 0.0000
 Depolar     --     0.0000                 0.0000                 0.0000
 Atom AN      X      Y      Z        X      Y      Z        X      Y      Z
   1   6     0.03  -0.14  -0.25     0.00  -0.01  -0.02    -0.01  -0.01   0.01
   2   6     0.00  -0.02  -0.04    -0.02   0.11   0.07    -0.01   0.08  -0.06
   3   6     0.00  -0.01  -0.01    -0.00   0.01   0.14    -0.01   0.05  -0.05
   4   6     0.00  -0.00  -0.00     0.01  -0.02   0.09     0.01  -0.07  -0.00
   5   6     0.00  -0.00   0.00    -0.02   0.09  -0.06    -0.00   0.03   0.03
   6   6     0.00   0.00   0.01     0.01   0.01  -0.06     0.06   0.06   0.12
   7   6     0.03  -0.01   0.06     0.00  -0.00   0.00    -0.01   0.00  -0.02
   8   1    -0.11   0.58   0.22    -0.01   0.05   0.02    -0.01   0.03   0.02
   9   1     0.02  -0.06   0.67    -0.00  -0.01   0.04    -0.00   0.00  -0.05
  10   1    -0.01  -0.04  -0.03     0.01   0.00  -0.01     0.03   0.02  -0.01
  11   1    -0.00  -0.01   0.09    -0.00   0.02  -0.07     0.00  -0.01   0.36
  12   1    -0.01   0.07   0.03     0.08  -0.43  -0.19     0.05  -0.27  -0.13
  13   1    -0.00  -0.00   0.03    -0.00   0.03  -0.50     0.00  -0.01   0.25
  14   1    -0.00   0.02   0.01     0.01  -0.05  -0.00     0.03  -0.17  -0.08
  15   1    -0.00   0.01   0.00    -0.01   0.08   0.05    -0.04   0.27   0.12
  16   1     0.00  -0.00   0.01    -0.01   0.02  -0.38     0.00  -0.00  -0.12
  17   1     0.00   0.00   0.00     0.07  -0.33  -0.13     0.02  -0.12  -0.04
  18   1    -0.00   0.00  -0.00    -0.01   0.01   0.34     0.00   0.00  -0.04
  19   1    -0.00  -0.00   0.00    -0.02  -0.02  -0.00    -0.26  -0.29   0.12
  20   1     0.00   0.00  -0.02    -0.01  -0.02   0.20     0.03   0.07  -0.57
  21   1     0.00   0.01  -0.18     0.00   0.00  -0.02    -0.00  -0.00   0.06
  22   1    -0.00  -0.01   0.01     0.01   0.01  -0.00     0.00   0.01  -0.01
  23   1    -0.11   0.02  -0.03    -0.01   0.00  -0.00     0.04  -0.01   0.01
                     55                     56                     57
                        a                      a                      a 
 Frequencies --  3030.6435              2991.4748              2973.4880
 Red. masses --    99.0000                99.0000                99.0000
 Frc consts  --    99.0000                99.0000                99.0000
 IR Inten    --    99.0000                99.0000                99.0000
 Raman Activ --     0.0000                 0.0000                 0.0000
 Depolar     --     0.0000                 0.0000                 0.0000
 Atom AN      X      Y      Z        X      Y      Z        X      Y      Z
   1   6     0.01   0.06   0.04    -0.01  -0.02   0.01    -0.00   0.01   0.01
   2   6    -0.00   0.01   0.01    -0.01   0.06  -0.02    -0.00  -0.00  -0.09
   3   6    -0.00   0.00   0.01    -0.01   0.07  -0.01     0.03  -0.17   0.01
   4   6    -0.00   0.00   0.01    -0.03   0.19   0.01    -0.00   0.02  -0.08
   5   6    -0.00   0.00   0.01    -0.01   0.06  -0.01     0.00   0.00  -0.04
   6   6     0.01   0.00   0.04     0.01   0.02  -0.01     0.04   0.04   0.01
   7   6     0.12  -0.04   0.24    -0.02  -0.01   0.01    -0.01  -0.00   0.00
   8   1     0.04  -0.18  -0.08    -0.01   0.05   0.02     0.01  -0.04  -0.02
   9   1    -0.00   0.02  -0.10    -0.00  -0.00  -0.03    -0.00   0.00  -0.02
  10   1    -0.06  -0.04   0.03     0.03   0.03  -0.01    -0.00  -0.00   0.00
  11   1     0.00   0.00  -0.02    -0.00  -0.00   0.18     0.00  -0.02   0.34
  12   1     0.00  -0.03  -0.01     0.04  -0.21  -0.10    -0.00   0.01  -0.01
  13   1    -0.00   0.00  -0.01     0.00   0.00   0.15     0.00  -0.00  -0.35
  14   1     0.00  -0.01  -0.01     0.04  -0.24  -0.11    -0.11   0.63   0.29
  15   1     0.00  -0.02  -0.01     0.11  -0.70  -0.31     0.01  -0.07  -0.04
  16   1     0.00   0.00  -0.02     0.00   0.01   0.29     0.01  -0.01   0.33
  17   1     0.00  -0.02  -0.00     0.04  -0.21  -0.08     0.00  -0.01  -0.01
  18   1    -0.00   0.00  -0.05    -0.00   0.01   0.12    -0.00  -0.00   0.16
  19   1    -0.01  -0.02   0.01    -0.05  -0.05   0.02    -0.16  -0.18   0.06
  20   1     0.00   0.01  -0.11     0.00  -0.00   0.03     0.01   0.02  -0.11
  21   1     0.01   0.06  -0.78    -0.00  -0.00  -0.01    -0.00   0.00  -0.00
  22   1     0.01  -0.01   0.04     0.04   0.05  -0.02     0.01   0.02  -0.01
  23   1    -0.45   0.08  -0.12     0.01  -0.01   0.01     0.01  -0.00   0.01
                     58                     59                     60
                        a                      a                      a 
 Frequencies --  2978.3565              3031.7974              2982.6025
 Red. masses --    99.0000                99.0000                99.0000
 Frc consts  --    99.0000                99.0000                99.0000
 IR Inten    --    99.0000                99.0000                99.0000
 Raman Activ --     0.0000                 0.0000                 0.0000
 Depolar     --     0.0000                 0.0000                 0.0000
 Atom AN      X      Y      Z        X      Y      Z        X      Y      Z
   1   6    -0.01  -0.01   0.00    -0.11  -0.23   0.13     0.01   0.01  -0.02
   2   6    -0.02   0.11  -0.06     0.00  -0.03   0.02     0.01  -0.04   0.08
   3   6     0.00  -0.01   0.03     0.00  -0.01   0.01     0.00  -0.01   0.10
   4   6    -0.00   0.01   0.03     0.00  -0.00   0.00    -0.01   0.08   0.11
   5   6     0.01  -0.10   0.10     0.00  -0.00   0.00    -0.00   0.00   0.12
   6   6    -0.06  -0.06  -0.01     0.00  -0.00   0.00     0.02   0.02   0.11
   7   6     0.01   0.00  -0.00     0.02  -0.00   0.03    -0.02   0.00  -0.02
   8   1    -0.01   0.03   0.01    -0.10   0.41   0.21     0.00  -0.00  -0.00
   9   1    -0.00  -0.00  -0.02    -0.02  -0.01  -0.45     0.00  -0.00   0.07
  10   1     0.03   0.02  -0.01     0.49   0.42  -0.20    -0.03  -0.02   0.01
  11   1     0.00  -0.01   0.41     0.00   0.00  -0.08    -0.00   0.02  -0.36
  12   1     0.07  -0.41  -0.19    -0.01   0.07   0.03    -0.02   0.11   0.06
  13   1    -0.00   0.01  -0.14     0.00   0.00  -0.05    -0.01   0.02  -0.39
  14   1    -0.01   0.04   0.02    -0.01   0.04   0.02    -0.01   0.04   0.03
  15   1     0.01  -0.06  -0.02    -0.00   0.01   0.01     0.05  -0.33  -0.13
  16   1    -0.00   0.01  -0.09    -0.00   0.00  -0.02    -0.01   0.02  -0.25
  17   1    -0.07   0.35   0.15    -0.00   0.01   0.00     0.00  -0.01   0.01
  18   1     0.01  -0.01  -0.50     0.00   0.00  -0.01     0.01   0.01  -0.43
  19   1     0.22   0.25  -0.09    -0.00  -0.00   0.00    -0.11  -0.12   0.06
  20   1    -0.01  -0.02   0.13     0.00   0.00  -0.01     0.02   0.05  -0.45
  21   1     0.00  -0.00   0.01     0.00   0.01  -0.09    -0.00  -0.01   0.09
  22   1    -0.02  -0.02   0.01    -0.01  -0.01   0.01     0.01   0.02  -0.01
  23   1    -0.02   0.00  -0.01    -0.06   0.01  -0.02     0.04  -0.01   0.01
                     61                     62                     63
                        a                      a                      a 
 Frequencies --  3033.8425              3046.4801              3037.4833
 Red. masses --    99.0000                99.0000                99.0000
 Frc consts  --    99.0000                99.0000                99.0000
 IR Inten    --    99.0000                99.0000                99.0000
 Raman Activ --     0.0000                 0.0000                 0.0000
 Depolar     --     0.0000                 0.0000                 0.0000
 Atom AN      X      Y      Z        X      Y      Z        X      Y      Z
   1   6    -0.01  -0.00  -0.00     0.00   0.00   0.00     0.15  -0.02   0.02
   2   6    -0.00  -0.00   0.00    -0.00   0.00   0.00     0.01  -0.00   0.00
   3   6     0.00  -0.00   0.00    -0.00   0.00   0.00     0.00  -0.00   0.00
   4   6     0.00  -0.01   0.00    -0.00   0.01   0.00     0.00  -0.00  -0.00
   5   6     0.00  -0.00   0.00    -0.00   0.01   0.00     0.00  -0.00   0.00
   6   6    -0.02  -0.01   0.01     0.01   0.02  -0.01    -0.00  -0.00   0.00
   7   6    -0.24  -0.03   0.09     0.07   0.19  -0.05    -0.02  -0.00   0.01
   8   1     0.00  -0.03  -0.01     0.00  -0.00  -0.00    -0.07   0.46   0.20
   9   1    -0.00  -0.00   0.03     0.00   0.00  -0.00     0.01   0.03  -0.50
  10   1     0.04   0.04  -0.02    -0.01  -0.01   0.00    -0.47  -0.44   0.21
  11   1     0.00   0.00  -0.00    -0.00   0.00   0.00     0.00  -0.00  -0.01
  12   1    -0.00   0.00   0.00     0.00  -0.01  -0.00    -0.00   0.01   0.01
  13   1    -0.00  -0.00  -0.00     0.00   0.00  -0.00     0.00   0.00  -0.01
  14   1    -0.00   0.00   0.00     0.00  -0.01  -0.00    -0.00   0.01   0.01
  15   1    -0.00   0.03   0.01     0.01  -0.05  -0.02    -0.00   0.00   0.00
  16   1     0.00  -0.00  -0.01    -0.00   0.00   0.01    -0.00  -0.00  -0.00
  17   1    -0.00   0.01   0.00     0.00  -0.02  -0.01    -0.00   0.01   0.00
  18   1    -0.00  -0.00  -0.01     0.00   0.00   0.00     0.00  -0.00  -0.01
  19   1     0.05   0.05  -0.02    -0.04  -0.04   0.02     0.01   0.01  -0.00
  20   1    -0.00   0.00  -0.02     0.00   0.00   0.01    -0.00  -0.00   0.00
  21   1    -0.04   0.03  -0.48     0.01   0.04  -0.16    -0.00   0.00  -0.03
  22   1     0.16   0.23  -0.08    -0.55  -0.68   0.26     0.02   0.02  -0.01
  23   1     0.72  -0.15   0.26     0.28  -0.03   0.08     0.05  -0.01   0.02
