      -----------------------------------------------------------      
     |                   =====================                   |     
     |                           x T B                           |     
     |                   =====================                   |     
     |                         S. Grimme                         |     
     |          Mulliken Center for Theoretical Chemistry        |     
     |                    University of Bonn                     |     
      -----------------------------------------------------------      

   * xtb version 6.6.1 (8d0f1dd) compiled by 'stahn@M-Bot' on 2023-08-01

   xtb is free software: you can redistribute it and/or modify it under
   the terms of the GNU Lesser General Public License as published by
   the Free Software Foundation, either version 3 of the License, or
   (at your option) any later version.
   
   xtb is distributed in the hope that it will be useful,
   but WITHOUT ANY WARRANTY; without even the implied warranty of
   MERCHANTABILITY or FITNESS FOR A PARTICULAR PURPOSE.  See the
   GNU Lesser General Public License for more details.
   
   Cite this work as:
   * C. Bannwarth, E. Caldeweyher, S. Ehlert, A. Hansen, P. Pracht,
     J. Seibert, S. Spicher, S. Grimme, WIREs Comput. Mol. Sci., 2020, 11,
     e01493. DOI: 10.1002/wcms.1493
   
   for GFN2-xTB:
   * C. Bannwarth, S. Ehlert and S. Grimme., J. Chem. Theory Comput., 2019,
     15, 1652-1671. DOI: 10.1021/acs.jctc.8b01176
   for GFN1-xTB:
   * S. Grimme, C. Bannwarth, P. Shushkov, J. Chem. Theory Comput., 2017,
     13, 1989-2009. DOI: 10.1021/acs.jctc.7b00118
   for GFN0-xTB:
   * P. Pracht, E. Caldeweyher, S. Ehlert, S. Grimme, ChemRxiv, 2019, preprint.
     DOI: 10.26434/chemrxiv.8326202.v1
   for GFN-FF:
   * S. Spicher and S. Grimme, Angew. Chem. Int. Ed., 2020, 59, 15665-15673.
     DOI: 10.1002/anie.202004239
   
   for ALPB and GBSA implicit solvation:
   * S. Ehlert, M. Stahn, S. Spicher, S. Grimme, J. Chem. Theory Comput.,
     2021, 17, 4250-4261. DOI: 10.1021/acs.jctc.1c00471
   
   for DFT-D4:
   * E. Caldeweyher, C. Bannwarth and S. Grimme, J. Chem. Phys., 2017,
     147, 034112. DOI: 10.1063/1.4993215
   * E. Caldeweyher, S. Ehlert, A. Hansen, H. Neugebauer, S. Spicher,
     C. Bannwarth and S. Grimme, J. Chem. Phys., 2019, 150, 154122.
     DOI: 10.1063/1.5090222
   * E. Caldeweyher, J.-M. Mewes, S. Ehlert and S. Grimme, Phys. Chem. Chem. Phys.
     2020, 22, 8499-8512. DOI: 10.1039/D0CP00502A
   
   for sTDA-xTB:
   * S. Grimme and C. Bannwarth, J. Chem. Phys., 2016, 145, 054103.
     DOI: 10.1063/1.4959605
   
   in the mass-spec context:
   * V. Asgeirsson, C. Bauer and S. Grimme, Chem. Sci., 2017, 8, 4879.
     DOI: 10.1039/c7sc00601b
   * J. Koopman and S. Grimme, ACS Omega 2019, 4, 12, 15120-15133.
     DOI: 10.1021/acsomega.9b02011
   
   for metadynamics refer to:
   * S. Grimme, J. Chem. Theory Comput., 2019, 155, 2847-2862
     DOI: 10.1021/acs.jctc.9b00143
   
   for SPH calculations refer to:
   * S. Spicher and S. Grimme, J. Chem. Theory Comput., 2021, 17, 1701-1714
     DOI: 10.1021/acs.jctc.0c01306
   
   with help from (in alphabetical order)
   P. Atkinson, C. Bannwarth, F. Bohle, G. Brandenburg, E. Caldeweyher
   M. Checinski, S. Dohm, S. Ehlert, S. Ehrlich, I. Gerasimov, C. Hölzer
   A. Katbashev, J. Koopman, C. Lavigne, S. Lehtola, F. März, M. Müller,
   F. Musil, H. Neugebauer, J. Pisarek, C. Plett, P. Pracht, F. Pultar,
   J. Seibert, P. Shushkov, S. Spicher, M. Stahn, M. Steiner, T. Strunk,
   J. Stückrath, T. Rose, and J. Unsleber
   
 * started run on 2024/04/20 at 10:58:55.646     

           -------------------------------------------------
          |                Calculation Setup                |
           -------------------------------------------------

          program call               : xtb unfolded.xyz --gfn 2 --ohess -P 4
          coordinate file            : unfolded.xyz
          omp threads                :                     4

   ID    Z sym.   atoms
    1    6 C      1-7
    2    1 H      8-23

           -------------------------------------------------
          |                 G F N 2 - x T B                 |
           -------------------------------------------------

        Reference                      10.1021/acs.jctc.8b01176
      * Hamiltonian:
        H0-scaling (s, p, d)           1.850000    2.230000    2.230000
        zeta-weighting                 0.500000
      * Dispersion:
        s8                             2.700000
        a1                             0.520000
        a2                             5.000000
        s9                             5.000000
      * Repulsion:
        kExp                           1.500000    1.000000
        rExp                           1.000000
      * Coulomb:
        alpha                          2.000000
        third order                    shell-resolved
        anisotropic                    true
        a3                             3.000000
        a5                             4.000000
        cn-shift                       1.200000
        cn-exp                         4.000000
        max-rad                        5.000000


          ...................................................
          :                      SETUP                      :
          :.................................................:
          :  # basis functions                  44          :
          :  # atomic orbitals                  44          :
          :  # shells                           30          :
          :  # electrons                        44          :
          :  max. iterations                   250          :
          :  Hamiltonian                  GFN2-xTB          :
          :  restarted?                      false          :
          :  GBSA solvation                  false          :
          :  PC potential                    false          :
          :  electronic temp.          300.0000000     K    :
          :  accuracy                    1.0000000          :
          :  -> integral cutoff          0.2500000E+02      :
          :  -> integral neglect         0.1000000E-07      :
          :  -> SCF convergence          0.1000000E-05 Eh   :
          :  -> wf. convergence          0.1000000E-03 e    :
          :  Broyden damping             0.4000000          :
          ...................................................

 iter      E             dE          RMSdq      gap      omega  full diag
   1    -23.4323452 -0.234323E+02  0.254E+00   12.76       0.0  T
   2    -23.4955362 -0.631910E-01  0.135E+00   12.59       1.0  T
   3    -23.4962420 -0.705813E-03  0.724E-01   12.59       1.0  T
   4    -23.4964206 -0.178593E-03  0.875E-02   12.61       1.0  T
   5    -23.4964273 -0.669248E-05  0.464E-02   12.61       1.0  T
   6    -23.4964288 -0.154090E-05  0.283E-03   12.61       7.4  T
   7    -23.4964289 -0.474988E-07  0.125E-03   12.61      16.7  T
   8    -23.4964289 -0.292807E-08  0.280E-04   12.61      74.5  T
   9    -23.4964289 -0.179689E-09  0.106E-04   12.61     197.0  T

   *** convergence criteria satisfied after 9 iterations ***

         #    Occupation            Energy/Eh            Energy/eV
      -------------------------------------------------------------
         1        2.0000           -0.6205645             -16.8864
       ...           ...                  ...                  ...
        16        2.0000           -0.4465829             -12.1521
        17        2.0000           -0.4414344             -12.0120
        18        2.0000           -0.4326337             -11.7726
        19        2.0000           -0.4241504             -11.5417
        20        2.0000           -0.4217282             -11.4758
        21        2.0000           -0.4170531             -11.3486
        22        2.0000           -0.4129031             -11.2357 (HOMO)
        23                          0.0504817               1.3737 (LUMO)
        24                          0.0946030               2.5743
        25                          0.1076960               2.9306
        26                          0.1178065               3.2057
        27                          0.1305659               3.5529
       ...                                ...                  ...
        44                          0.3044616               8.2848
      -------------------------------------------------------------
                  HL-Gap            0.4633848 Eh           12.6093 eV
             Fermi-level           -0.1812107 Eh           -4.9310 eV

 SCC (total)                   0 d,  0 h,  0 min,  0.009 sec
 SCC setup                      ...        0 min,  0.000 sec (  4.186%)
 Dispersion                     ...        0 min,  0.000 sec (  1.591%)
 classical contributions        ...        0 min,  0.000 sec (  0.311%)
 integral evaluation            ...        0 min,  0.001 sec (  7.614%)
 iterations                     ...        0 min,  0.006 sec ( 63.526%)
 molecular gradient             ...        0 min,  0.002 sec ( 18.667%)
 printout                       ...        0 min,  0.000 sec (  3.781%)

         :::::::::::::::::::::::::::::::::::::::::::::::::::::
         ::                     SUMMARY                     ::
         :::::::::::::::::::::::::::::::::::::::::::::::::::::
         :: total energy             -23.155856017187 Eh    ::
         :: gradient norm              0.024604119228 Eh/a0 ::
         :: HOMO-LUMO gap             12.609342363575 eV    ::
         ::.................................................::
         :: SCC energy               -23.496428855351 Eh    ::
         :: -> isotropic ES            0.004091144088 Eh    ::
         :: -> anisotropic ES          0.008124668421 Eh    ::
         :: -> anisotropic XC          0.014355614501 Eh    ::
         :: -> dispersion             -0.012882880904 Eh    ::
         :: repulsion energy           0.340590280260 Eh    ::
         :: add. restraining           0.000000000000 Eh    ::
         :: total charge               0.000000000000 e     ::
         :::::::::::::::::::::::::::::::::::::::::::::::::::::

      ----------------------------------------------------------- 
     |                   =====================                   |
     |                        A N C O P T                        |
     |                   =====================                   |
     |               Approximate Normal Coordinate               |
     |                Rational Function Optimizer                |
      ----------------------------------------------------------- 

          ...................................................
          :                      SETUP                      :
          :.................................................:
          :   optimization level            normal          :
          :   max. optcycles                   200          :
          :   ANC micro-cycles                  20          :
          :   degrees of freedom                63          :
          :.................................................:
          :   RF solver                   davidson          :
          :   write xtbopt.log                true          :
          :   linear?                        false          :
          :   energy convergence         0.5000000E-05 Eh   :
          :   grad. convergence          0.1000000E-02 Eh/α :
          :   maxmium RF displ.          2.0000000          :
          :   Hlow (freq-cutoff)         0.2000000E-01      :
          :   Hmax (freq-cutoff)         5.0000000          :
          :   S6 in model hess.         70.0000000          :
          ...................................................

generating ANC from model Hessian ...
Using Lindh-Hessian (1995)
 Shifting diagonal of input Hessian by   1.787865734783163E-002
 Lowest  eigenvalues of input Hessian
    0.000000    0.000000    0.000000    0.000000    0.000000    0.000000
    0.020000    0.020816    0.022516    0.024727    0.025415    0.027821
    0.032125    0.032723    0.036367    0.037237    0.045178    0.061267
 Highest eigenvalues
    1.178329    1.187733    1.225047    1.251497    1.277349    1.321104
 

........................................................................
.............................. CYCLE    1 ..............................
........................................................................

 iter      E             dE          RMSdq      gap      omega  full diag
   1    -23.4964289 -0.234964E+02  0.288E-05   12.61       0.0  T
   2    -23.4964289 -0.145661E-11  0.160E-05   12.61    1299.7  T
   3    -23.4964289 -0.710543E-13  0.502E-06   12.61    4155.0  T
     SCC iter.                  ...        0 min,  0.002 sec
     gradient                   ...        0 min,  0.002 sec
 * total energy  :   -23.1558560 Eh     change       -0.1030287E-10 Eh
   gradient norm :     0.0246040 Eh/α   predicted     0.0000000E+00 (-100.00%)
   displ. norm   :     0.1448122 α      lambda       -0.1961128E-02
   maximum displ.:     0.0868853 α      in ANC's #27, #19, #8, ...

........................................................................
.............................. CYCLE    2 ..............................
........................................................................

 iter      E             dE          RMSdq      gap      omega  full diag
   1    -23.5032822 -0.235033E+02  0.137E-01   12.78       0.0  T
   2    -23.5032855 -0.334868E-05  0.786E-02   12.78       1.0  T
   3    -23.5032860 -0.454770E-06  0.442E-03   12.78       4.7  T
   4    -23.5032861 -0.648847E-07  0.139E-03   12.78      15.0  T
   5    -23.5032861 -0.244266E-08  0.750E-04   12.78      27.8  T
   6    -23.5032861 -0.256716E-09  0.579E-05   12.78     360.3  T
     SCC iter.                  ...        0 min,  0.003 sec
     gradient                   ...        0 min,  0.002 sec
 * total energy  :   -23.1571262 Eh     change       -0.1270181E-02 Eh
   gradient norm :     0.0108268 Eh/α   predicted    -0.1001130E-02 ( -21.18%)
   displ. norm   :     0.0676086 α      lambda       -0.3159441E-03
   maximum displ.:     0.0345520 α      in ANC's #27, #8, #10, ...

........................................................................
.............................. CYCLE    3 ..............................
........................................................................

 iter      E             dE          RMSdq      gap      omega  full diag
   1    -23.5076509 -0.235077E+02  0.577E-02   12.86       0.0  T
   2    -23.5076528 -0.191306E-05  0.325E-02   12.86       1.0  T
   3    -23.5076529 -0.662783E-07  0.422E-03   12.86       4.9  T
   4    -23.5076529 -0.253537E-07  0.685E-04   12.86      30.4  T
   5    -23.5076529 -0.184734E-08  0.377E-04   12.86      55.3  T
     SCC iter.                  ...        0 min,  0.003 sec
     gradient                   ...        0 min,  0.002 sec
 * total energy  :   -23.1572966 Eh     change       -0.1703986E-03 Eh
   gradient norm :     0.0020072 Eh/α   predicted    -0.1587425E-03 (  -6.84%)
   displ. norm   :     0.0163236 α      lambda       -0.1142596E-04
   maximum displ.:     0.0107106 α      in ANC's #8, #2, #1, ...

........................................................................
.............................. CYCLE    4 ..............................
........................................................................

 iter      E             dE          RMSdq      gap      omega  full diag
   1    -23.5082124 -0.235082E+02  0.631E-03   12.87       0.0  T
   2    -23.5082124 -0.577852E-07  0.356E-03   12.87       5.9  T
   3    -23.5082124 -0.127622E-08  0.807E-04   12.87      25.8  T
   4    -23.5082124 -0.427629E-09  0.125E-04   12.87     167.3  T
     SCC iter.                  ...        0 min,  0.002 sec
     gradient                   ...        0 min,  0.002 sec
 * total energy  :   -23.1573049 Eh     change       -0.8264107E-05 Eh
   gradient norm :     0.0005295 Eh/α   predicted    -0.5716039E-05 ( -30.83%)
   displ. norm   :     0.0402087 α      lambda       -0.8918787E-05
   maximum displ.:     0.0229798 α      in ANC's #2, #8, #1, ...

........................................................................
.............................. CYCLE    5 ..............................
........................................................................

 iter      E             dE          RMSdq      gap      omega  full diag
   1    -23.5086160 -0.235086E+02  0.104E-02   12.88       0.0  T
   2    -23.5086160 -0.535980E-07  0.614E-03   12.88       3.4  T
   3    -23.5086160 -0.355103E-08  0.620E-04   12.88      33.6  T
   4    -23.5086160 -0.110609E-08  0.199E-04   12.88     105.0  T
     SCC iter.                  ...        0 min,  0.002 sec
     gradient                   ...        0 min,  0.002 sec
 * total energy  :   -23.1573124 Eh     change       -0.7491030E-05 Eh
   gradient norm :     0.0015928 Eh/α   predicted    -0.4466096E-05 ( -40.38%)
   displ. norm   :     0.0315957 α      lambda       -0.4891851E-05
   maximum displ.:     0.0197973 α      in ANC's #2, #1, #8, ...

........................................................................
.............................. CYCLE    6 ..............................
........................................................................

 iter      E             dE          RMSdq      gap      omega  full diag
   1    -23.5084398 -0.235084E+02  0.610E-03   12.88       0.0  T
   2    -23.5084398 -0.888431E-08  0.362E-03   12.88       5.8  T
   3    -23.5084398 -0.748930E-09  0.237E-04   12.88      87.8  T
   4    -23.5084398 -0.150884E-09  0.920E-05   12.88     226.6  T
     SCC iter.                  ...        0 min,  0.002 sec
     gradient                   ...        0 min,  0.002 sec
 * total energy  :   -23.1573186 Eh     change       -0.6200263E-05 Eh
   gradient norm :     0.0011515 Eh/α   predicted    -0.2448778E-05 ( -60.51%)
   displ. norm   :     0.0807234 α      lambda       -0.9875094E-05
   maximum displ.:     0.0516484 α      in ANC's #2, #1, #8, ...

........................................................................
.............................. CYCLE    7 ..............................
........................................................................

 iter      E             dE          RMSdq      gap      omega  full diag
   1    -23.5081597 -0.235082E+02  0.154E-02   12.88       0.0  T
   2    -23.5081597 -0.408580E-07  0.914E-03   12.88       2.3  T
   3    -23.5081597 -0.450107E-08  0.546E-04   12.88      38.2  T
   4    -23.5081597 -0.118228E-08  0.239E-04   12.88      87.3  T
     SCC iter.                  ...        0 min,  0.002 sec
     gradient                   ...        0 min,  0.002 sec
 * total energy  :   -23.1573265 Eh     change       -0.7940732E-05 Eh
   gradient norm :     0.0003076 Eh/α   predicted    -0.4955775E-05 ( -37.59%)
   displ. norm   :     0.0105364 α      lambda       -0.5163035E-06
   maximum displ.:     0.0070542 α      in ANC's #1, #2, #6, ...

........................................................................
.............................. CYCLE    8 ..............................
........................................................................

 iter      E             dE          RMSdq      gap      omega  full diag
   1    -23.5081697 -0.235082E+02  0.242E-03   12.87       0.0  T
   2    -23.5081697 -0.112764E-08  0.143E-03   12.87      14.6  T
   3    -23.5081697 -0.280238E-10  0.123E-04   12.87     169.7  T
   4    -23.5081697 -0.163958E-09  0.414E-05   12.87     503.8  T
     SCC iter.                  ...        0 min,  0.002 sec
     gradient                   ...        0 min,  0.002 sec
 * total energy  :   -23.1573271 Eh     change       -0.5672208E-06 Eh
   gradient norm :     0.0001849 Eh/α   predicted    -0.2710717E-06 ( -52.21%)
   displ. norm   :     0.0145373 α      lambda       -0.5472803E-06
   maximum displ.:     0.0111493 α      in ANC's #1, #2, #6, ...

   *** GEOMETRY OPTIMIZATION CONVERGED AFTER 8 ITERATIONS ***

------------------------------------------------------------------------
 total energy gain   :        -0.0014710 Eh       -0.9231 kcal/mol
 total RMSD          :         0.0615199 a0        0.0326 Å
 total power (kW/mol):        -0.4827779 (step)  -78.4289 (real)
------------------------------------------------------------------------

 ANCopt (total)                0 d,  0 h,  0 min,  0.049 sec
 optimizer setup                ...        0 min,  0.000 sec (  0.872%)
 model hessian                  ...        0 min,  0.009 sec ( 17.493%)
 ANC generation                 ...        0 min,  0.001 sec (  1.562%)
 coordinate transformation      ...        0 min,  0.000 sec (  0.183%)
 single point calculation       ...        0 min,  0.037 sec ( 74.125%)
 optimization log               ...        0 min,  0.001 sec (  1.513%)
 hessian update                 ...        0 min,  0.000 sec (  0.801%)
 rational function              ...        0 min,  0.001 sec (  1.374%)

================
 final structure:
================
23
 xtb: 6.6.1 (8d0f1dd)
C           -3.69909228125004       -0.02879747584801       -0.18115638138185
C           -2.33430276225167       -0.53127798427983        0.27308642212682
C           -1.20831339209597        0.40021604742525       -0.16909090126807
C            0.16276318767302       -0.10424633140879        0.27437779108594
C            1.28610985204474        0.82117975309589       -0.18788232256743
C            2.66626819834447        0.39946267047424        0.31736350234236
C            3.15510752528118       -0.90882952644418       -0.29332515640713
H           -3.90112234419999        0.95578064313981        0.23533200092504
H           -3.73599331685088        0.04563817836257       -1.26596814921793
H           -4.48544338654164       -0.70660399789870        0.14319547842937
H           -2.32339778323172       -0.61811446092709        1.36217138308624
H           -2.15970330959296       -1.52807507940646       -0.13895046275008
H           -1.22385713484924        0.49156336728746       -1.25801908621506
H           -1.38041880765580        1.39599010044733        0.24704557937756
H            0.31848105077929       -1.10522957965743       -0.13157239524846
H            0.18410531292760       -0.18006996072568        1.36446322189132
H            1.07621113322978        1.83213049533506        0.17120579108083
H            1.29854181317591        0.85657112793550       -1.27998326758377
H            3.38165453373940        1.18934068612167        0.07513551308600
H            2.63740839647533        0.30342702708469        1.40528226988992
H            3.14791682759776       -0.84718306120737       -1.37956944445932
H            2.52468359779864       -1.74091426858535        0.00878618112841
H            4.17171308945277       -1.12031937032060        0.03083343264927
           -------------------------------------------------
          |                Final Singlepoint                |
           -------------------------------------------------

          ...................................................
          :                      SETUP                      :
          :.................................................:
          :  # basis functions                  44          :
          :  # atomic orbitals                  44          :
          :  # shells                           30          :
          :  # electrons                        44          :
          :  max. iterations                   250          :
          :  Hamiltonian                  GFN2-xTB          :
          :  restarted?                      false          :
          :  GBSA solvation                  false          :
          :  PC potential                    false          :
          :  electronic temp.          300.0000000     K    :
          :  accuracy                    1.0000000          :
          :  -> integral cutoff          0.2500000E+02      :
          :  -> integral neglect         0.1000000E-07      :
          :  -> SCF convergence          0.1000000E-05 Eh   :
          :  -> wf. convergence          0.1000000E-03 e    :
          :  Broyden damping             0.4000000          :
          ...................................................

 iter      E             dE          RMSdq      gap      omega  full diag
   1    -23.5081697 -0.235082E+02  0.143E-05   12.87       0.0  T
   2    -23.5081697 -0.110134E-12  0.851E-06   12.87    2451.0  T
   3    -23.5081697 -0.319744E-13  0.163E-06   12.87   12809.6  T

   *** convergence criteria satisfied after 3 iterations ***

         #    Occupation            Energy/Eh            Energy/eV
      -------------------------------------------------------------
         1        2.0000           -0.6215684             -16.9137
       ...           ...                  ...                  ...
        16        2.0000           -0.4457406             -12.1292
        17        2.0000           -0.4410418             -12.0014
        18        2.0000           -0.4322321             -11.7616
        19        2.0000           -0.4234425             -11.5225
        20        2.0000           -0.4229580             -11.5093
        21        2.0000           -0.4169613             -11.3461
        22        2.0000           -0.4138289             -11.2609 (HOMO)
        23                          0.0591600               1.6098 (LUMO)
        24                          0.1030728               2.8048
        25                          0.1150311               3.1302
        26                          0.1203693               3.2754
        27                          0.1390908               3.7849
       ...                                ...                  ...
        44                          0.3213368               8.7440
      -------------------------------------------------------------
                  HL-Gap            0.4729889 Eh           12.8707 eV
             Fermi-level           -0.1773344 Eh           -4.8255 eV

 SCC (total)                   0 d,  0 h,  0 min,  0.004 sec
 SCC setup                      ...        0 min,  0.000 sec (  7.665%)
 Dispersion                     ...        0 min,  0.000 sec (  1.331%)
 classical contributions        ...        0 min,  0.000 sec (  0.588%)
 integral evaluation            ...        0 min,  0.000 sec ( 10.441%)
 iterations                     ...        0 min,  0.002 sec ( 34.180%)
 molecular gradient             ...        0 min,  0.002 sec ( 37.759%)
 printout                       ...        0 min,  0.000 sec (  7.552%)

         :::::::::::::::::::::::::::::::::::::::::::::::::::::
         ::                     SUMMARY                     ::
         :::::::::::::::::::::::::::::::::::::::::::::::::::::
         :: total energy             -23.157327060392 Eh    ::
         :: gradient norm              0.000184906064 Eh/a0 ::
         :: HOMO-LUMO gap             12.870683508293 eV    ::
         ::.................................................::
         :: SCC energy               -23.508169685229 Eh    ::
         :: -> isotropic ES            0.004365304510 Eh    ::
         :: -> anisotropic ES          0.007770690561 Eh    ::
         :: -> anisotropic XC          0.014516610689 Eh    ::
         :: -> dispersion             -0.012911901948 Eh    ::
         :: repulsion energy           0.350861231356 Eh    ::
         :: add. restraining           0.000000000000 Eh    ::
         :: total charge               0.000000000000 e     ::
         :::::::::::::::::::::::::::::::::::::::::::::::::::::

           ------------------------------------------------- 
          |                Numerical Hessian                |
           ------------------------------------------------- 
step length          :   0.00500
SCC accuracy         :   0.30000
Hessian scale factor :   1.00000
frozen atoms in %    :   0.00000    0
RMS gradient         :   0.00018
estimated CPU  time      0.08 min
estimated wall time      0.03 min

writing file <hessian>.

 projected vibrational frequencies (cm⁻¹)
eigval :       -0.00    -0.00    -0.00     0.00     0.00     0.00
eigval :       47.63    70.68   115.43   122.96   135.49   226.91
eigval :      234.34   282.91   353.79   396.26   487.28   769.23
eigval :      786.75   813.89   870.29   923.54   947.92   960.07
eigval :     1008.85  1027.47  1084.07  1094.07  1114.80  1135.39
eigval :     1146.11  1184.31  1218.05  1248.62  1262.99  1277.94
eigval :     1285.12  1294.63  1324.28  1353.68  1367.95  1379.46
eigval :     1415.95  1416.46  1491.37  1493.51  1496.88  1499.96
eigval :     1500.70  1504.99  1507.57  1508.23  1510.92  2954.12
eigval :     2956.44  2961.34  2964.68  2972.18  2973.49  2978.36
eigval :     2979.34  2982.60  2991.47  3029.68  3030.64  3031.80
eigval :     3033.84  3037.48  3046.48
           -------------------------------------------------
          |                Property Printout                |
           -------------------------------------------------

    * Orbital Energies and Occupations

         #    Occupation            Energy/Eh            Energy/eV
      -------------------------------------------------------------
         1        2.0000           -0.6215684             -16.9137
       ...           ...                  ...                  ...
        10        2.0000           -0.5017514             -13.6534
        11        2.0000           -0.4906380             -13.3509
        12        2.0000           -0.4793417             -13.0436
        13        2.0000           -0.4764861             -12.9658
        14        2.0000           -0.4655705             -12.6688
        15        2.0000           -0.4526489             -12.3172
        16        2.0000           -0.4457406             -12.1292
        17        2.0000           -0.4410418             -12.0014
        18        2.0000           -0.4322321             -11.7616
        19        2.0000           -0.4234425             -11.5225
        20        2.0000           -0.4229580             -11.5093
        21        2.0000           -0.4169613             -11.3461
        22        2.0000           -0.4138289             -11.2609 (HOMO)
        23                          0.0591600               1.6098 (LUMO)
        24                          0.1030728               2.8048
        25                          0.1150311               3.1302
        26                          0.1203693               3.2754
        27                          0.1390908               3.7849
        28                          0.1395693               3.7979
        29                          0.1508968               4.1061
        30                          0.1555918               4.2339
        31                          0.1608888               4.3780
        32                          0.1719473               4.6789
        33                          0.1820066               4.9527
       ...                                ...                  ...
        44                          0.3213368               8.7440
      -------------------------------------------------------------
                  HL-Gap            0.4729889 Eh           12.8707 eV
             Fermi-level           -0.1773344 Eh           -4.8255 eV

     #   Z          covCN         q      C6AA      α(0)
     1   6 C        3.752    -0.102    22.507     6.765
     2   6 C        3.801    -0.053    21.518     6.605
     3   6 C        3.803    -0.059    21.633     6.622
     4   6 C        3.802    -0.058    21.624     6.620
     5   6 C        3.802    -0.058    21.615     6.619
     6   6 C        3.800    -0.053    21.520     6.605
     7   6 C        3.751    -0.102    22.504     6.765
     8   1 H        0.925     0.033     2.544     2.494
     9   1 H        0.925     0.033     2.544     2.494
    10   1 H        0.925     0.032     2.554     2.499
    11   1 H        0.924     0.028     2.613     2.528
    12   1 H        0.924     0.028     2.614     2.528
    13   1 H        0.924     0.029     2.600     2.521
    14   1 H        0.924     0.028     2.609     2.526
    15   1 H        0.924     0.032     2.563     2.503
    16   1 H        0.924     0.028     2.614     2.529
    17   1 H        0.924     0.027     2.631     2.537
    18   1 H        0.924     0.030     2.586     2.515
    19   1 H        0.924     0.028     2.621     2.532
    20   1 H        0.924     0.029     2.600     2.522
    21   1 H        0.925     0.034     2.537     2.491
    22   1 H        0.925     0.034     2.524     2.484
    23   1 H        0.925     0.031     2.576     2.510

 Mol. C6AA /au·bohr⁶  :       3403.493777
 Mol. C8AA /au·bohr⁸  :      70210.847676
 Mol. α(0) /au        :         86.814202


Wiberg/Mayer (AO) data.
largest (>0.10) Wiberg bond orders for each atom

 ---------------------------------------------------------------------------
     #   Z sym  total        # sym  WBO       # sym  WBO       # sym  WBO
 ---------------------------------------------------------------------------
     1   6 C    3.997 --     2 C    1.019     8 H    0.988     9 H    0.988
                            10 H    0.988
     2   6 C    3.998 --     1 C    1.019     3 C    1.008    11 H    0.979
                            12 H    0.979
     3   6 C    3.997 --     2 C    1.008     4 C    1.007    13 H    0.978
                            14 H    0.978
     4   6 C    3.998 --     5 C    1.008     3 C    1.007    16 H    0.977
                            15 H    0.976
     5   6 C    3.997 --     4 C    1.008     6 C    1.007    17 H    0.978
                            18 H    0.977
     6   6 C    3.998 --     7 C    1.020     5 C    1.007    19 H    0.979
                            20 H    0.978
     7   6 C    3.997 --     6 C    1.020    21 H    0.988    23 H    0.988
                            22 H    0.986
     8   1 H    0.999 --     1 C    0.988
     9   1 H    0.999 --     1 C    0.988
    10   1 H    0.999 --     1 C    0.988
    11   1 H    0.999 --     2 C    0.979
    12   1 H    0.999 --     2 C    0.979
    13   1 H    0.999 --     3 C    0.978
    14   1 H    0.999 --     3 C    0.978
    15   1 H    0.999 --     4 C    0.976
    16   1 H    0.999 --     4 C    0.977
    17   1 H    0.999 --     5 C    0.978
    18   1 H    0.999 --     5 C    0.977
    19   1 H    0.999 --     6 C    0.979
    20   1 H    0.999 --     6 C    0.978
    21   1 H    0.999 --     7 C    0.988
    22   1 H    0.999 --     7 C    0.986
    23   1 H    0.999 --     7 C    0.988
 ---------------------------------------------------------------------------

Topologies differ in total number of bonds
Writing topology from bond orders to xtbtopo.mol

molecular dipole:
                 x           y           z       tot (Debye)
 q only:        0.004      -0.010      -0.008
   full:        0.001      -0.006      -0.007       0.024
molecular quadrupole (traceless):
                xx          xy          yy          xz          yz          zz
 q only:        0.225      -0.073      -0.008       0.045      -0.054      -0.216
  q+dip:       -1.468       0.179       0.171      -0.252       0.313       1.297
   full:       -0.621       0.058       0.064      -0.112       0.145       0.558

           -------------------------------------------------
          |                Geometry Summary                 |
           -------------------------------------------------

      molecular mass/u    :      100.2022033
   center of mass at/Å    :       -0.0012989      -0.0020881      -0.0001301
  moments of inertia/u·Å² :        0.6164014E+02   0.6091533E+03   0.6349277E+03
rotational constants/cm⁻¹ :        0.2734847E+00   0.2767388E-01   0.2655047E-01

 * 22 selected distances

     #   Z          #   Z                                           value/Å
     1   6 C        2   6 C                                       1.5236384
     2   6 C        3   6 C                                       1.5267791
     3   6 C        4   6 C                                       1.5267607
     4   6 C        5   6 C                                       1.5270907
     5   6 C        6   6 C                                       1.5290377 (max)
     6   6 C        7   6 C                                       1.5243141
     1   6 C        8   1 H                                       1.0879674
     1   6 C        9   1 H                                       1.0879886
     1   6 C       10   1 H                                       1.0876461
     2   6 C       11   1 H                                       1.0925959
     2   6 C       12   1 H                                       1.0926409
     3   6 C       13   1 H                                       1.0928636
     3   6 C       14   1 H                                       1.0928660
     4   6 C       15   1 H                                       1.0913346
     4   6 C       16   1 H                                       1.0929278
     5   6 C       17   1 H                                       1.0931712
     5   6 C       18   1 H                                       1.0927451
     6   6 C       19   1 H                                       1.0928676
     6   6 C       20   1 H                                       1.0925306
     7   6 C       21   1 H                                       1.0880160
     7   6 C       22   1 H                                       1.0867708 (min)
     7   6 C       23   1 H                                       1.0877931

 * 2 distinct bonds (by element types)

   Z      Z             #   av. dist./Å        max./Å        min./Å
   1 H    6 C          16     1.0907953     1.0931712     1.0867708
   6 C    6 C           6     1.5262701     1.5290377     1.5236384

           -------------------------------------------------
          |               Frequency Printout                |
           -------------------------------------------------
 projected vibrational frequencies (cm⁻¹)
eigval :       -0.00    -0.00    -0.00     0.00     0.00     0.00
eigval :       47.63    70.68   115.43   122.96   135.49   226.91
eigval :      234.34   282.91   353.79   396.26   487.28   769.23
eigval :      786.75   813.89   870.29   923.54   947.92   960.07
eigval :     1008.85  1027.47  1084.07  1094.07  1114.80  1135.39
eigval :     1146.11  1184.31  1218.05  1248.62  1262.99  1277.94
eigval :     1285.12  1294.63  1324.28  1353.68  1367.95  1379.46
eigval :     1415.95  1416.46  1491.37  1493.51  1496.88  1499.96
eigval :     1500.70  1504.99  1507.57  1508.23  1510.92  2954.12
eigval :     2956.44  2961.34  2964.68  2972.18  2973.49  2978.36
eigval :     2979.34  2982.60  2991.47  3029.68  3030.64  3031.80
eigval :     3033.84  3037.48  3046.48
 reduced masses (amu)
   1:  8.34   2:  9.86   3:  9.98   4:  9.61   5:  9.01   6:  9.66   7:  7.08   8:  7.40
   9:  7.62  10:  7.13  11:  5.91  12:  4.49  13:  2.56  14:  6.71  15:  8.79  16:  8.67
  17:  8.16  18:  1.79  19:  2.40  20:  2.64  21:  3.19  22:  7.39  23:  5.45  24:  3.44
  25:  6.20  26:  3.15  27:  8.76  28:  7.90  29:  7.53  30:  7.78  31:  7.89  32:  6.79
  33:  5.17  34:  3.55  35:  3.29  36:  2.56  37:  1.92  38:  2.23  39:  3.75  40:  4.57
  41:  4.78  42:  5.65  43:  3.22  44:  3.19  45:  1.89  46:  1.83  47:  1.93  48:  2.01
  49:  1.77  50:  1.53  51:  1.69  52:  1.63  53:  1.56  54:  1.89  55:  1.93  56:  1.91
  57:  1.90  58:  1.71  59:  1.57  60:  1.51  61:  1.51  62:  1.76  63:  1.59  64:  1.96
  65:  1.92  66:  1.93  67:  1.72  68:  1.26  69:  1.50
 IR intensities (km·mol⁻¹)
   1:  0.00   2:  0.00   3:  0.00   4:  0.00   5:  0.00   6:  0.00   7:  0.00   8:  0.01
   9:  0.06  10:  0.02  11:  0.02  12:  0.04  13:  0.01  14:  0.03  15:  0.10  16:  0.22
  17:  0.90  18: 11.87  19:  2.12  20:  5.31  21:  1.86  22:  2.38  23:  3.40  24:  1.14
  25:  0.88  26:  1.22  27:  0.33  28:  1.30  29:  0.77  30:  1.08  31:  1.59  32:  1.40
  33:  0.30  34:  0.21  35:  0.37  36:  0.70  37:  0.29  38:  0.22  39:  0.13  40:  3.62
  41:  0.95  42:  0.07  43:  2.11  44:  0.94  45:  0.47  46:  0.47  47:  0.02  48:  0.34
  49:  0.09  50:  2.27  51:  0.36  52:  2.04  53:  2.12  54:  2.17  55:  8.48  56: 21.54
  57:  2.58  58: 40.99  59: 26.22  60: 10.59  61: 28.45  62:160.38  63:114.99  64: 41.44
  65: 75.26  66: 64.05  67: 54.07  68: 27.29  69: 37.97
 Raman intensities (amu)
   1:  0.00   2:  0.00   3:  0.00   4:  0.00   5:  0.00   6:  0.00   7:  0.00   8:  0.00
   9:  0.00  10:  0.00  11:  0.00  12:  0.00  13:  0.00  14:  0.00  15:  0.00  16:  0.00
  17:  0.00  18:  0.00  19:  0.00  20:  0.00  21:  0.00  22:  0.00  23:  0.00  24:  0.00
  25:  0.00  26:  0.00  27:  0.00  28:  0.00  29:  0.00  30:  0.00  31:  0.00  32:  0.00
  33:  0.00  34:  0.00  35:  0.00  36:  0.00  37:  0.00  38:  0.00  39:  0.00  40:  0.00
  41:  0.00  42:  0.00  43:  0.00  44:  0.00  45:  0.00  46:  0.00  47:  0.00  48:  0.00
  49:  0.00  50:  0.00  51:  0.00  52:  0.00  53:  0.00  54:  0.00  55:  0.00  56:  0.00
  57:  0.00  58:  0.00  59:  0.00  60:  0.00  61:  0.00  62:  0.00  63:  0.00  64:  0.00
  65:  0.00  66:  0.00  67:  0.00  68:  0.00  69:  0.00
 output can be read by thermo (or use thermo option).
 writing <g98.out> molden fake output.
 recommended (thermochemical) frequency scaling factor: 1.0
           -------------------------------------------------
          |             Thermodynamic Functions             |
           -------------------------------------------------

Molecule has no symmetry elements
It seems to be the C1 point group
c1  symmetry found (for desy threshold:  0.10E+00) used in thermo

          ...................................................
          :                      SETUP                      :
          :.................................................:
          :  # frequencies                          63      :
          :  # imaginary freq.                       0      :
          :  linear?                             false      :
          :  only rotor calc.                    false      :
          :  symmetry                               c1      :
          :  rotational number                       1      :
          :  scaling factor                  1.0000000      :
          :  rotor cutoff                   50.0000000 cm⁻¹ :
          :  imag. cutoff                  -20.0000000 cm⁻¹ :
          :.................................................:

    mode    ω/cm⁻¹     T·S(HO)/kcal·mol⁻¹    T·S(FR)/kcal·mol⁻¹   T·S(vib)
   ------------------------------------------------------------------------
       1     47.63    -1.46491 ( 45.16%)    -1.07068 ( 54.84%)    -1.24873
       2     70.68    -1.23269 ( 79.97%)    -0.95387 ( 20.03%)    -1.17683
       3    115.43    -0.94675 ( 96.60%)    -0.80859 (  3.40%)    -0.94205
       4    122.96    -0.91033 ( 97.34%)    -0.78988 (  2.66%)    -0.90712
       5    135.49    -0.85468 ( 98.18%)    -0.76115 (  1.82%)    -0.85297
       6    226.91    -0.56745 ( 99.76%)    -0.60842 (  0.24%)    -0.56754
       7    234.34    -0.55022 ( 99.79%)    -0.59888 (  0.21%)    -0.55032
       8    282.91    -0.45200 ( 99.90%)    -0.54309 (  0.10%)    -0.45208
   ------------------------------------------------------------------------

   temp. (K)  partition function   enthalpy   heat capacity  entropy
                                   cal/mol     cal/K/mol   cal/K/mol   J/K/mol
 298.15  VIB  0.104E+04             4324.309     27.049     27.369
         ROT  0.373E+06              888.752      2.981     28.476
         INT  0.389E+09             5213.061     30.030     55.845
         TR   0.970E+27             1481.254      4.968     39.706
         TOT                        6694.3151    34.9985    95.5511   399.7859

       T/K    H(0)-H(T)+PV         H(T)/Eh          T*S/Eh         G(T)/Eh
   ------------------------------------------------------------------------
    298.15    0.106681E-01    0.226237E+00    0.453994E-01    0.180837E+00
   ------------------------------------------------------------------------

         :::::::::::::::::::::::::::::::::::::::::::::::::::::
         ::                  THERMODYNAMIC                  ::
         :::::::::::::::::::::::::::::::::::::::::::::::::::::
         :: total free energy         -22.976489904471 Eh   ::
         ::.................................................::
         :: total energy              -23.157327060392 Eh   ::
         :: zero point energy           0.215568508305 Eh   ::
         :: G(RRHO) w/o ZPVE           -0.034731352384 Eh   ::
         :: G(RRHO) contrib.            0.180837155921 Eh   ::
         :::::::::::::::::::::::::::::::::::::::::::::::::::::
 
 normal mode %tage of torsion character
   1:  0.00   2:  0.00   3:  0.00   4:  0.00   5:  0.00   6:  0.00   7:  0.54   8:  0.53
   9:  0.58  10:  0.60  11:  0.52  12:  0.62  13:  0.87  14:  0.58  15:  0.15  16:  0.11
  17:  0.10  18:  0.52  19:  0.50  20:  0.52  21:  0.50  22:  0.15  23:  0.09  24:  0.43
  25:  0.10  26:  0.37  27:  0.04  28:  0.11  29:  0.06  30:  0.07  31:  0.13  32:  0.50
  33:  0.46  34:  0.24  35:  0.24  36:  0.13  37:  0.10  38:  0.18  39:  0.07  40:  0.09
  41:  0.07  42:  0.06  43:  0.00  44:  0.00  45:  0.61  46:  0.69  47:  0.64  48:  0.62
  49:  0.64  50:  0.92  51:  0.80  52:  0.86  53:  0.90  54:  0.42  55:  0.31  56:  0.17
  57:  0.19  58:  0.02  59:  0.01  60:  0.01  61:  0.02  62:  0.01  63:  0.02  64:  0.08
  65:  0.04  66:  0.03  67:  0.03  68:  0.00  69:  0.02
 recommended # of modes for mode following           4

optimized geometry written to: xtbopt.xyz


           -------------------------------------------------
          | TOTAL ENERGY              -23.157327060392 Eh   |
          | TOTAL ENTHALPY            -22.931090481974 Eh   |
          | TOTAL FREE ENERGY         -22.976489904471 Eh   |
          | GRADIENT NORM               0.000184911134 Eh/α |
          | HOMO-LUMO GAP              12.870683522628 eV   |
           -------------------------------------------------

------------------------------------------------------------------------
 * finished run on 2024/04/20 at 10:58:56.185     
------------------------------------------------------------------------
 total:
 * wall-time:     0 d,  0 h,  0 min,  0.538 sec
 *  cpu-time:     0 d,  0 h,  0 min,  1.661 sec
 * ratio c/w:     3.084 speedup
 SCF:
 * wall-time:     0 d,  0 h,  0 min,  0.010 sec
 *  cpu-time:     0 d,  0 h,  0 min,  0.036 sec
 * ratio c/w:     3.720 speedup
 ANC optimizer:
 * wall-time:     0 d,  0 h,  0 min,  0.057 sec
 *  cpu-time:     0 d,  0 h,  0 min,  0.215 sec
 * ratio c/w:     3.782 speedup
 analytical hessian:
 * wall-time:     0 d,  0 h,  0 min,  0.432 sec
 *  cpu-time:     0 d,  0 h,  0 min,  1.302 sec
 * ratio c/w:     3.016 speedup

