23
 energy: -23.157327060392 gnorm: 0.000184906064 xtb: 6.6.1 (8d0f1dd)
C           -3.69909306431658       -0.02877842361990       -0.18114341885147
C           -2.33430459071330       -0.53126528527032        0.27309549763353
C           -1.20831188678830        0.40022207901708       -0.16908738196614
C            0.16276359959959       -0.10424670475869        0.27437740487732
C            1.28611349586666        0.82117269111486       -0.18788824516533
C            2.66627139768141        0.39944926381852        0.31735349811430
C            3.15510174270334       -0.90884655847832       -0.29333458360105
H           -3.90111651820702        0.95580148008161        0.23534395025722
H           -3.73599749689030        0.04565553046904       -1.26595518778509
H           -4.48544658637058       -0.70658026224065        0.14321236883601
H           -2.32339626473413       -0.61809991822267        1.36218057207735
H           -2.15971179555318       -1.52806401371486       -0.13894025696816
H           -1.22385895233475        0.49156757974642       -1.25801567207809
H           -1.38041063589589        1.39599775945341        0.24704796148397
H            0.31847480453567       -1.10523147683822       -0.13157157796653
H            0.18410913296856       -0.18006854328347        1.36446289351352
H            1.07622132383266        1.83212515908619        0.17119883672304
H            1.29854183014474        0.85656209480458       -1.27998929533869
H            3.38166102331157        1.18932311093665        0.07512163309318
H            2.63741489053480        0.30341567029657        1.40527253400711
H            3.14790757608204       -0.84720195142612       -1.37957895413808
H            2.52467451302310       -1.74092747243663        0.00878040678867
H            4.17170733102776       -1.12034115952827        0.03082082594943
