23
 energy: -23.155856017197 gnorm: 0.024603951200 xtb: 6.6.1 (8d0f1dd)
C           -3.71068500000000       -0.04736200000000       -0.17923600000000
C           -2.34028500000000       -0.53197600000000        0.26815000000000
C           -1.21010600000000        0.40060500000000       -0.17064600000000
C            0.17084000000000       -0.08441100000000        0.27191100000000
C            1.30075700000000        0.84280800000000       -0.17746600000000
C            2.68509600000000        0.40359500000000        0.31092400000000
C            3.14475100000000       -0.91654100000000       -0.28908300000000
H           -3.93260500000000        0.94126600000000        0.22814100000000
H           -3.76524400000000        0.03417000000000       -1.26691700000000
H           -4.50961100000000       -0.72119300000000        0.13990500000000
H           -2.31585500000000       -0.64220900000000        1.36089400000000
H           -2.14981400000000       -1.54099100000000       -0.12236700000000
H           -1.22853700000000        0.51384200000000       -1.26194500000000
H           -1.39080100000000        1.40899500000000        0.22255600000000
H            0.34107600000000       -1.09656000000000       -0.11407600000000
H            0.19209100000000       -0.18866700000000        1.36391400000000
H            1.08539200000000        1.86166600000000        0.17135400000000
H            1.30268300000000        0.91055800000000       -1.27255900000000
H            3.42245700000000        1.18674600000000        0.08256600000000
H            2.67550900000000        0.33318100000000        1.40710300000000
H            3.15571900000000       -0.87140400000000       -1.38028000000000
H            2.48394900000000       -1.73849600000000       -0.00736400000000
H            4.15254300000000       -1.18598300000000        0.03728200000000
23
 energy: -23.157126198467 gnorm: 0.010826802879 xtb: 6.6.1 (8d0f1dd)
C           -3.70067328905639       -0.04320267367960       -0.18032770728220
C           -2.33237401408274       -0.53166354724348        0.26923007922212
C           -1.20809816300933        0.40437619444913       -0.17217762424322
C            0.16710634573208       -0.08869089958022        0.27339279571916
C            1.29472990277180        0.83695366429419       -0.18072301438306
C            2.67535339237823        0.40053891024422        0.31296479603389
C            3.13931775815291       -0.91606290008405       -0.29108737713650
H           -3.91702133190438        0.94144003542519        0.23377751944035
H           -3.74894629881794        0.03113998324737       -1.26663026757716
H           -4.48606604875851       -0.72489967054232        0.14515759511207
H           -2.31732931831983       -0.62529347015493        1.36076834105216
H           -2.14994629233222       -1.53280078930551       -0.13701108634176
H           -1.22412563030009        0.49930294683350       -1.26328817351115
H           -1.38770018588817        1.40457983490076        0.23665698252350
H            0.33184425456299       -1.09246278404909       -0.12907904898148
H            0.18652449422841       -0.17414091351801        1.36533203372044
H            1.09056142347695        1.84894063365222        0.18624243086207
H            1.30228260452794        0.89224119923817       -1.27452311809103
H            3.40353280851850        1.18153927921891        0.06541884442659
H            2.66041014331613        0.31822671345015        1.40532892886297
H            3.15081861618979       -0.85958539337213       -1.37956000161959
H            2.48281760800579       -1.73470661455371       -0.00110544005096
H            4.14630122060807       -1.16413073887074        0.04400351224276
23
 energy: -23.157296597038 gnorm: 0.002007179832 xtb: 6.6.1 (8d0f1dd)
C           -3.69692372480929       -0.04066788919012       -0.18089708451332
C           -2.32799648923982       -0.53158963871831        0.27023160519733
C           -1.20689703264049        0.40604143299061       -0.17263479389298
C            0.16540590734374       -0.09177208054617        0.27397798353901
C            1.29065628377281        0.83492793705825       -0.18148862128275
C            2.67035396674164        0.39965626795776        0.31348202907198
C            3.13846593096977       -0.91724064393192       -0.29192053416034
H           -3.90801108073552        0.94240447884848        0.23520730223584
H           -3.73970459421699        0.03164984279958       -1.26586906307523
H           -4.47630567195348       -0.72538961811437        0.14705350326757
H           -2.31553549602258       -0.61823709394161        1.35973972589349
H           -2.14781452879031       -1.52784773537411       -0.14190365105826
H           -1.22179403690629        0.49409864503478       -1.26214777981512
H           -1.38561898668710        1.40178197660210        0.24159924893980
H            0.32559935461247       -1.09162673324984       -0.13373760498436
H            0.18368635033776       -0.16904976174815        1.36439648194942
H            1.08885742398240        1.84315701908511        0.19056359323243
H            1.30022843729170        0.88260649919560       -1.27346464576511
H            3.39256910774052        1.18032141593058        0.05963852215843
H            2.65083928097909        0.31145542329081        1.40270509353971
H            3.14795393264799       -0.85472229721638       -1.37829049936667
H            2.48562340415666       -1.73545722306253        0.00066968656290
H            4.14568226142533       -1.15286122370015        0.04585050232625
23
 energy: -23.157304861145 gnorm: 0.000529489494 xtb: 6.6.1 (8d0f1dd)
C           -3.69683903996641       -0.03981511202544       -0.18096647345305
C           -2.32754835130693       -0.53167996515441        0.27069164512047
C           -1.20693588675689        0.40623883571736       -0.17252608123284
C            0.16492991687297       -0.09286191678413        0.27433574119011
C            1.28966233257732        0.83377443318553       -0.18226524068336
C            2.66954766915276        0.39979706563938        0.31405197956629
C            3.13952332708197       -0.91704453283290       -0.29230503761595
H           -3.90623133368337        0.94335606177690        0.23511543422328
H           -3.73795733714458        0.03272933178384       -1.26573735274202
H           -4.47631263636857       -0.72407897291443        0.14670761950997
H           -2.31484556526407       -0.61796952160060        1.35976647610076
H           -2.14726831603687       -1.52736405697655       -0.14156702811218
H           -1.22156633708003        0.49447702659133       -1.26163737112202
H           -1.38494259093662        1.40164391590765        0.24174499970864
H            0.32400039154879       -1.09251607585862       -0.13319077264707
H            0.18317559368356       -0.16995109242770        1.36435563895108
H            1.08669496870294        1.84159089755754        0.18903134127769
H            1.29898497553351        0.88047125269759       -1.27393096298637
H            3.39102157582598        1.18064102367316        0.06083165646682
H            2.64872704548568        0.31048370067263        1.40276647535131
H            3.14749624704439       -0.85425284786984       -1.37845339863209
H            2.48868620398944       -1.73634208214862        0.00107363164856
H            4.14731714704503       -1.14968836860966        0.04486808011198
23
 energy: -23.157312352175 gnorm: 0.001592847846 xtb: 6.6.1 (8d0f1dd)
C           -3.69717099635278       -0.03752750449993       -0.18106632079922
C           -2.32794279349448       -0.53165460970370        0.27160737110304
C           -1.20728337254733        0.40578393818805       -0.17177978438210
C            0.16406170632508       -0.09565371059898        0.27467908315939
C            1.28794535041468        0.83082532348712       -0.18382837908132
C            2.66817338566501        0.39998622332646        0.31495960236401
C            3.14310356534009       -0.91579617882274       -0.29290661741489
H           -3.90339687384615        0.94610314424433        0.23496480067519
H           -3.73535435882244        0.03565395858648       -1.26568650009242
H           -4.47813311312826       -0.72004792437057        0.14547234852535
H           -2.31479703724750       -0.61794101230563        1.36028992764904
H           -2.14775017541065       -1.52699156776654       -0.14048029892625
H           -1.22156546593306        0.49521044111187       -1.26049111628730
H           -1.38354074650091        1.40117061961481        0.24247661203717
H            0.32102117547985       -1.09576389536007       -0.13180665275357
H            0.18258567925887       -0.17261331423712        1.36434686141614
H            1.08209002480826        1.83894166533148        0.18427793214530
H            1.29708523691432        0.87490317817478       -1.27530062092364
H            3.38852966947451        1.18216766778329        0.06481226768634
H            2.64441704322273        0.30839808821364        1.40304193791969
H            3.14688510006824       -0.85298371911267       -1.37890194250153
H            2.49738385105950       -1.73829834548543        0.00263307381565
H            4.15297314525242       -1.14223346579892        0.04144741466594
23
 energy: -23.157318552439 gnorm: 0.001151470328 xtb: 6.6.1 (8d0f1dd)
C           -3.69750313474459       -0.03545076489795       -0.18114301010437
C           -2.32933626754478       -0.53148630303099        0.27206542133763
C           -1.20759225143297        0.40460554891233       -0.17097407858548
C            0.16365356042546       -0.09774380791303        0.27469086446069
C            1.28736449218631        0.82825351884635       -0.18499488159512
C            2.66747373778591        0.39982721188107        0.31556917682871
C            3.14611357033179       -0.91409439462564       -0.29313238592732
H           -3.90252815444390        0.94846771679875        0.23496314546123
H           -3.73490945684341        0.03805335460872       -1.26582609506686
H           -4.47998413779796       -0.71664754062018        0.14460281362407
H           -2.31656901327460       -0.61799410341875        1.36089413795160
H           -2.15011798709448       -1.52720429175301       -0.13993071443058
H           -1.22209082394748        0.49484224779087       -1.25978189736390
H           -1.38268483677683        1.40018554704088        0.24376056658879
H            0.31986608707954       -1.09832544574799       -0.13140121070248
H            0.18282293522827       -0.17446592319233        1.36452877544508
H            1.08018652135879        1.83722671883187        0.18059088100446
H            1.29706939263196        0.87012028502401       -1.27669899670269
H            3.38685859753298        1.18388953704437        0.06787534223099
H            2.64206550452915        0.30686476197778        1.40360895484100
H            3.14677516220800       -0.85162587564384       -1.37922240324030
H            2.50450441761093       -1.73922585923286        0.00431388016240
H            4.15788208499190       -1.13643313868044        0.03840271378244
23
 energy: -23.157326493170 gnorm: 0.000307630685 xtb: 6.6.1 (8d0f1dd)
C           -3.69855951297845       -0.02969431872846       -0.18131054893916
C           -2.33346615478586       -0.53118944829318        0.27306807189889
C           -1.20825278106824        0.40107029677698       -0.16901456204651
C            0.16277443461169       -0.10342444425310        0.27443815937540
C            1.28609340154606        0.82191378288575       -0.18761747878285
C            2.66603151545353        0.39932067350907        0.31708289532693
C            3.15401655868288       -0.90953109569951       -0.29341592506030
H           -3.90105074699631        0.95480310561168        0.23508120460422
H           -3.73514686238372        0.04459059123666       -1.26611658376460
H           -4.48450651404989       -0.70793488071834        0.14299400359198
H           -2.32239352532033       -0.61798134373001        1.36215668488475
H           -2.15797810275303       -1.52786151763485       -0.13893256250387
H           -1.22365319480414        0.49249746581981       -1.25794650892804
H           -1.38069080444628        1.39680731983624        0.24715160435562
H            0.31815072114911       -1.10460479773565       -0.13123541598560
H            0.18392796824201       -0.17900689534552        1.36455377845252
H            1.07649282967986        1.83289181295518        0.17181885283547
H            1.29815897229871        0.85762367280433       -1.27974342435701
H            3.38205434424579        1.18860762457848        0.07477026278742
H            2.63712219770661        0.30327749631944        1.40497832855816
H            3.14709246765899       -0.84767996129574       -1.37966186718947
H            2.52265343940842       -1.74106151929481        0.00856828574957
H            4.17044934890256       -1.12179461960444        0.03109374513647
23
 energy: -23.157327060391 gnorm: 0.000184861950 xtb: 6.6.1 (8d0f1dd)
C           -3.69909228125004       -0.02879747584801       -0.18115638138185
C           -2.33430276225167       -0.53127798427983        0.27308642212682
C           -1.20831339209597        0.40021604742525       -0.16909090126807
C            0.16276318767302       -0.10424633140879        0.27437779108594
C            1.28610985204474        0.82117975309589       -0.18788232256743
C            2.66626819834447        0.39946267047424        0.31736350234236
C            3.15510752528118       -0.90882952644418       -0.29332515640713
H           -3.90112234419999        0.95578064313981        0.23533200092504
H           -3.73599331685088        0.04563817836257       -1.26596814921793
H           -4.48544338654164       -0.70660399789870        0.14319547842937
H           -2.32339778323172       -0.61811446092709        1.36217138308624
H           -2.15970330959296       -1.52807507940646       -0.13895046275008
H           -1.22385713484924        0.49156336728746       -1.25801908621506
H           -1.38041880765580        1.39599010044733        0.24704557937756
H            0.31848105077929       -1.10522957965743       -0.13157239524846
H            0.18410531292760       -0.18006996072568        1.36446322189132
H            1.07621113322978        1.83213049533506        0.17120579108083
H            1.29854181317591        0.85657112793550       -1.27998326758377
H            3.38165453373940        1.18934068612167        0.07513551308600
H            2.63740839647533        0.30342702708469        1.40528226988992
H            3.14791682759776       -0.84718306120737       -1.37956944445932
H            2.52468359779864       -1.74091426858535        0.00878618112841
H            4.17171308945277       -1.12031937032060        0.03083343264927
