 Entering Gaussian System
 *********************************************
 Gaussian 98:
 frequency output generated by the xtb code
 *********************************************
                         Standard orientation:
 --------------------------------------------------------------------
  Center     Atomic     Atomic              Coordinates (Angstroms)
  Number     Number      Type              X           Y           Z
 --------------------------------------------------------------------
    1          6             0        0.398408    3.204375    1.051447
    2          6             0       -0.678895    2.680939    0.109214
    3          6             0       -2.007705    2.475716    0.833526
    4          6             0       -3.164363    2.094909   -0.093939
    5          6             0       -2.931883    0.838574   -0.935742
    6          6             0       -2.648083   -0.410201   -0.104736
    7          6             0       -2.387961   -1.624728   -0.992746
    8          6             0       -2.026082   -2.890803   -0.212571
    9          6             0       -0.815587   -2.752236    0.714437
   10          6             0        0.445441   -2.262672    0.006375
   11          6             0        1.630688   -2.173514    0.965047
   12          6             0        2.902155   -1.638427    0.304726
   13          6             0        2.808148   -0.162691   -0.078775
   14          6             0        4.132963    0.374949   -0.614216
   15          6             0        4.034741    1.849759   -0.984653
   16          1             0        0.553475    2.510570    1.875511
   17          1             0        0.110270    4.167632    1.467476
   18          1             0        1.341177    3.326691    0.523033
   19          1             0       -0.819949    3.389179   -0.710660
   20          1             0       -0.341496    1.736124   -0.319464
   21          1             0       -2.275861    3.405048    1.343347
   22          1             0       -1.884398    1.712033    1.603831
   23          1             0       -4.060713    1.952083    0.515088
   24          1             0       -3.358339    2.929760   -0.772572
   25          1             0       -3.820917    0.665703   -1.548072
   26          1             0       -2.098680    1.009972   -1.620419
   27          1             0       -1.772737   -0.229531    0.516898
   28          1             0       -3.494189   -0.612749    0.556075
   29          1             0       -3.281719   -1.830610   -1.587620
   30          1             0       -1.584739   -1.389423   -1.694027
   31          1             0       -2.886083   -3.194693    0.389585
   32          1             0       -1.829826   -3.690275   -0.931670
   33          1             0       -0.614968   -3.728721    1.163295
   34          1             0       -1.056040   -2.068705    1.531178
   35          1             0        0.259347   -1.277465   -0.419057
   36          1             0        0.690466   -2.942271   -0.813343
   37          1             0        1.365518   -1.525627    1.804605
   38          1             0        1.833730   -3.168065    1.370426
   39          1             0        3.124839   -2.231559   -0.585529
   40          1             0        3.736145   -1.764219    1.000134
   41          1             0        2.041132   -0.024971   -0.842934
   42          1             0        2.512965    0.419352    0.797636
   43          1             0        4.427352   -0.202328   -1.493901
   44          1             0        4.909981    0.242361    0.142365
   45          1             0        3.271933    2.002236   -1.745535
   46          1             0        3.770892    2.443526   -0.111775
   47          1             0        4.983455    2.213843   -1.372214
 --------------------------------------------------------------------
     1 basis functions        1 primitive gaussians
     1 alpha electrons        1 beta electrons
 
 Harmonic frequencies (cm**-1), IR intensities (km*mol⁻¹),
 Raman scattering activities (A**4/amu), Raman depolarization ratios,
 reduced masses (AMU), force constants (mDyne/A) and normal coordinates:
                      1                      2                      3
                        a                      a                      a 
 Frequencies --    17.2417                24.6423                32.1948
 Red. masses --     9.0204                 8.4416                 9.6686
 Frc consts  --     0.0000                 0.0000                 0.0000
 IR Inten    --     0.0015                 0.0049                 0.0079
 Raman Activ --     0.0000                 0.0000                 0.0000
 Depolar     --     0.0000                 0.0000                 0.0000
 Atom AN      X      Y      Z        X      Y      Z        X      Y      Z
   1   6    -0.05  -0.21   0.45    -0.10   0.11  -0.11    -0.27   0.47   0.20
   2   6     0.08  -0.13   0.26    -0.17   0.09  -0.01    -0.12   0.32   0.11
   3   6    -0.07  -0.04   0.02    -0.08  -0.03   0.13    -0.15   0.12  -0.00
   4   6     0.08   0.03  -0.19    -0.16  -0.05   0.24    -0.02   0.01  -0.10
   5   6     0.15   0.02  -0.15    -0.17   0.03   0.12     0.16   0.01  -0.06
   6   6    -0.01   0.01  -0.09    -0.02  -0.02   0.00     0.15   0.04  -0.01
   7   6     0.03  -0.01  -0.04     0.06   0.08  -0.11     0.09  -0.00   0.03
   8   6     0.01   0.02   0.02     0.08   0.02  -0.22     0.01  -0.00   0.07
   9   6    -0.02   0.05   0.05     0.01  -0.01  -0.12     0.04  -0.06   0.04
  10   6    -0.00   0.05   0.07     0.05   0.06   0.00     0.06  -0.17  -0.01
  11   6    -0.05   0.17   0.12    -0.05   0.12   0.13     0.10  -0.21  -0.06
  12   6    -0.02   0.10   0.12     0.04   0.01   0.22     0.06  -0.18  -0.09
  13   6    -0.04   0.04  -0.13     0.08  -0.07  -0.10     0.01  -0.17  -0.06
  14   6    -0.02  -0.00  -0.12     0.20  -0.13   0.12    -0.01  -0.10  -0.03
  15   6    -0.05  -0.08  -0.39     0.22  -0.23  -0.26    -0.10  -0.10  -0.04
  16   1    -0.07  -0.07   0.14     0.01   0.03  -0.05    -0.07   0.14   0.06
  17   1    -0.02  -0.06   0.12    -0.03   0.02  -0.01    -0.13   0.12   0.05
  18   1     0.01  -0.08   0.18    -0.05   0.06  -0.06    -0.07   0.18   0.08
  19   1     0.08  -0.03   0.07    -0.09   0.04   0.01    -0.04   0.09   0.03
  20   1     0.03  -0.04   0.09    -0.05   0.04  -0.03     0.02   0.11   0.04
  21   1    -0.03  -0.01  -0.01    -0.02  -0.02   0.06    -0.09   0.02   0.00
  22   1    -0.07  -0.01   0.01     0.02  -0.02   0.02    -0.03   0.03  -0.01
  23   1    -0.01   0.02  -0.10    -0.02  -0.04   0.10    -0.02  -0.02  -0.05
  24   1     0.07   0.01  -0.06    -0.09  -0.00   0.09    -0.01  -0.01  -0.04
  25   1     0.07   0.01  -0.08    -0.06   0.01   0.06     0.07  -0.02  -0.04
  26   1     0.07  -0.01  -0.01    -0.07   0.04   0.02     0.06   0.02   0.01
  27   1    -0.02  -0.01   0.00    -0.00   0.00  -0.01     0.05   0.01  -0.01
  28   1    -0.03   0.02  -0.05     0.01  -0.04   0.01     0.05   0.03   0.00
  29   1     0.02  -0.01  -0.02     0.03   0.03  -0.05     0.02   0.01   0.01
  30   1     0.02  -0.01  -0.01     0.02   0.05  -0.02     0.03  -0.02   0.01
  31   1    -0.00   0.01  -0.00     0.02  -0.03  -0.09     0.00   0.02   0.03
  32   1     0.01  -0.00   0.01     0.05   0.03  -0.08    -0.02  -0.01   0.03
  33   1    -0.01   0.02   0.03    -0.00  -0.01  -0.05    -0.00  -0.02   0.02
  34   1    -0.01   0.02   0.01    -0.02  -0.02  -0.03     0.03  -0.00   0.00
  35   1    -0.01   0.00  -0.00     0.01   0.02  -0.00     0.03  -0.05  -0.01
  36   1     0.02  -0.00   0.04     0.05   0.02   0.01    -0.00  -0.06   0.00
  37   1    -0.03   0.08   0.01    -0.04   0.06   0.01     0.04  -0.07  -0.01
  38   1    -0.02   0.06   0.07    -0.04   0.05   0.07     0.03  -0.07  -0.03
  39   1     0.01  -0.01   0.07     0.06  -0.05   0.11     0.01  -0.05  -0.03
  40   1    -0.02   0.07   0.06    -0.02   0.05   0.11     0.03  -0.05  -0.03
  41   1     0.00  -0.03  -0.06     0.08  -0.07  -0.09     0.00  -0.06  -0.02
  42   1    -0.04   0.05  -0.07    -0.04   0.03  -0.08    -0.01  -0.06  -0.02
  43   1     0.02  -0.04   0.00     0.13  -0.10   0.10     0.01  -0.02  -0.01
  44   1    -0.02   0.05  -0.01     0.00   0.03   0.10    -0.01  -0.01  -0.00
  45   1     0.00  -0.07  -0.14     0.12  -0.13  -0.15    -0.02  -0.05  -0.02
  46   1    -0.04   0.02  -0.15    -0.02  -0.01  -0.14    -0.06  -0.04  -0.01
  47   1    -0.01  -0.03  -0.11     0.09  -0.08  -0.02    -0.03  -0.01   0.00
                      4                      5                      6
                        a                      a                      a 
 Frequencies --    32.5604                57.4233                69.8284
 Red. masses --     9.4587                 6.3107                 8.6764
 Frc consts  --     0.0000                 0.0000                 0.0000
 IR Inten    --     0.0070                 0.0019                 0.0087
 Raman Activ --     0.0000                 0.0000                 0.0000
 Depolar     --     0.0000                 0.0000                 0.0000
 Atom AN      X      Y      Z        X      Y      Z        X      Y      Z
   1   6     0.19   0.19  -0.11     0.03   0.00  -0.01     0.05  -0.41  -0.03
   2   6     0.17   0.09  -0.04     0.07  -0.09  -0.00    -0.12   0.07  -0.10
   3   6     0.25  -0.05   0.06     0.03   0.01  -0.04    -0.10   0.13  -0.06
   4   6     0.19  -0.04   0.12     0.05   0.02  -0.06    -0.13   0.11  -0.01
   5   6     0.16  -0.00   0.05     0.02  -0.03   0.01    -0.14   0.10   0.00
   6   6     0.14  -0.05  -0.02    -0.06  -0.01   0.06     0.15   0.16  -0.00
   7   6     0.05  -0.02  -0.08    -0.11  -0.05   0.11     0.15   0.16   0.00
   8   6    -0.01  -0.09  -0.15    -0.06  -0.02   0.14     0.08   0.15   0.01
   9   6    -0.05  -0.18  -0.09     0.01   0.02   0.03     0.07   0.07   0.03
  10   6    -0.01  -0.15   0.00    -0.05   0.04  -0.06     0.15  -0.15   0.01
  11   6    -0.11   0.00   0.11     0.02  -0.03  -0.14     0.14  -0.19   0.02
  12   6    -0.10   0.08   0.19     0.01  -0.02  -0.16     0.12  -0.10   0.05
  13   6    -0.23   0.03   0.02    -0.09  -0.08  -0.37    -0.01  -0.11   0.06
  14   6    -0.24   0.12   0.08     0.12   0.15   0.37    -0.06   0.06   0.11
  15   6    -0.38   0.06  -0.12     0.01   0.07   0.09    -0.31  -0.00  -0.07
  16   1     0.09   0.06  -0.04    -0.00   0.03   0.02     0.00  -0.21  -0.08
  17   1     0.03   0.04  -0.02     0.01   0.01  -0.04     0.07  -0.15   0.09
  18   1     0.04   0.09  -0.05     0.02  -0.02   0.00     0.01  -0.12  -0.02
  19   1     0.01   0.03  -0.00     0.03  -0.05  -0.02    -0.01   0.09   0.03
  20   1     0.07   0.04  -0.02     0.02  -0.04   0.03    -0.09   0.03  -0.11
  21   1     0.07  -0.03   0.04     0.02   0.01  -0.03    -0.02   0.04  -0.02
  22   1     0.10  -0.03  -0.00    -0.01   0.01   0.00    -0.03   0.04  -0.01
  23   1     0.07  -0.03   0.05     0.01   0.03  -0.02    -0.03   0.03   0.01
  24   1     0.04  -0.00   0.05     0.03  -0.00  -0.03    -0.05   0.03  -0.00
  25   1     0.04   0.01   0.02     0.01  -0.00  -0.01    -0.07  -0.01   0.05
  26   1     0.05   0.01   0.01     0.02  -0.03   0.01    -0.08   0.05  -0.05
  27   1     0.05  -0.03  -0.01    -0.02  -0.01   0.02     0.07   0.08  -0.04
  28   1     0.05  -0.01   0.00    -0.03   0.02   0.02     0.08   0.02   0.04
  29   1     0.01   0.02  -0.02    -0.04  -0.02   0.05     0.05   0.05  -0.01
  30   1     0.02  -0.01  -0.03    -0.04  -0.02   0.02     0.05   0.04   0.01
  31   1    -0.01  -0.03  -0.06    -0.01   0.01   0.06     0.01   0.06  -0.00
  32   1    -0.00  -0.01  -0.06    -0.04  -0.01   0.05     0.01   0.04   0.01
  33   1    -0.03  -0.06  -0.04     0.02   0.01   0.01    -0.02   0.02   0.04
  34   1    -0.02  -0.06  -0.02     0.02   0.00   0.02     0.04   0.05  -0.01
  35   1    -0.01  -0.06  -0.02    -0.02   0.02   0.00     0.07  -0.05  -0.02
  36   1     0.03  -0.05   0.02    -0.04   0.02  -0.03     0.02  -0.07   0.02
  37   1    -0.07   0.01   0.01     0.02  -0.02  -0.03     0.04  -0.07   0.02
  38   1    -0.02   0.01   0.05     0.01  -0.02  -0.06     0.05  -0.06  -0.01
  39   1     0.02   0.00   0.08     0.04  -0.04  -0.01     0.05  -0.02   0.01
  40   1    -0.05   0.07   0.08    -0.01   0.04  -0.02     0.03  -0.01   0.02
  41   1    -0.05  -0.04  -0.02     0.10  -0.10  -0.25     0.00  -0.05   0.01
  42   1    -0.11   0.03  -0.02    -0.21  -0.01  -0.18    -0.03  -0.04   0.01
  43   1    -0.03   0.01   0.05     0.24   0.03   0.19     0.03   0.00   0.06
  44   1    -0.09   0.09   0.05    -0.10   0.13   0.26    -0.03   0.08   0.05
  45   1    -0.10  -0.04  -0.06     0.14  -0.06  -0.13    -0.08  -0.07  -0.04
  46   1    -0.15   0.04  -0.06    -0.20   0.04  -0.05    -0.14   0.01  -0.05
  47   1    -0.11   0.03  -0.03     0.05   0.07   0.19    -0.10   0.04  -0.01
                      7                      8                      9
                        a                      a                      a 
 Frequencies --    80.5102                93.8782               111.1899
 Red. masses --     6.3696                 6.8913                 8.2315
 Frc consts  --     0.0000                 0.0000                 0.0000
 IR Inten    --     0.0079                 0.0012                 0.0260
 Raman Activ --     0.0000                 0.0000                 0.0000
 Depolar     --     0.0000                 0.0000                 0.0000
 Atom AN      X      Y      Z        X      Y      Z        X      Y      Z
   1   6     0.06  -0.19   0.11     0.05   0.01   0.02     0.02  -0.00  -0.03
   2   6    -0.08   0.47  -0.10     0.02   0.17  -0.04    -0.01  -0.00  -0.00
   3   6     0.04  -0.05  -0.03     0.08  -0.07  -0.01     0.02  -0.06   0.04
   4   6     0.04  -0.08  -0.02     0.07  -0.04  -0.02    -0.00  -0.02   0.05
   5   6     0.06  -0.08  -0.03     0.03  -0.04  -0.03    -0.01   0.03  -0.03
   6   6     0.12  -0.05  -0.02    -0.27  -0.11  -0.03    -0.11  -0.02  -0.09
   7   6    -0.09  -0.13   0.03    -0.00  -0.05  -0.03     0.20   0.06  -0.10
   8   6    -0.07  -0.09   0.08     0.05  -0.02  -0.01     0.13   0.06  -0.06
   9   6    -0.04  -0.04   0.04     0.01   0.05   0.03    -0.01   0.09   0.12
  10   6    -0.07  -0.02  -0.00    -0.09   0.43   0.11     0.01   0.17   0.23
  11   6    -0.09   0.13   0.00     0.09  -0.16  -0.05     0.06   0.03   0.17
  12   6    -0.09   0.07  -0.03     0.05  -0.09  -0.07     0.04  -0.09   0.04
  13   6    -0.04   0.05  -0.12     0.07  -0.02   0.21    -0.10  -0.22  -0.40
  14   6     0.03  -0.01  -0.03     0.02   0.02   0.12    -0.10  -0.09  -0.25
  15   6     0.18   0.03   0.09    -0.17  -0.07  -0.18    -0.11   0.05   0.29
  16   1     0.08  -0.24  -0.14     0.05  -0.06  -0.05     0.03  -0.01  -0.02
  17   1     0.02  -0.16   0.27    -0.00  -0.04   0.09    -0.00  -0.01   0.01
  18   1    -0.01   0.09   0.01    -0.00   0.07  -0.01    -0.00   0.02  -0.02
  19   1    -0.06   0.30   0.12    -0.02   0.10   0.04    -0.02   0.01   0.01
  20   1    -0.04   0.22  -0.23     0.02   0.08  -0.08     0.00   0.01  -0.01
  21   1    -0.04  -0.07   0.07     0.00  -0.05   0.04     0.01  -0.03   0.03
  22   1     0.09  -0.07  -0.07     0.05  -0.05  -0.04     0.02  -0.03  -0.00
  23   1     0.02  -0.04  -0.00     0.02  -0.01  -0.01     0.00  -0.02   0.02
  24   1    -0.00  -0.02  -0.00     0.03  -0.01  -0.00    -0.01   0.01   0.03
  25   1     0.01  -0.03   0.00     0.03   0.03  -0.05     0.01   0.03  -0.03
  26   1     0.01  -0.02  -0.02     0.05  -0.03   0.03     0.01   0.01   0.01
  27   1     0.07  -0.02  -0.05    -0.14  -0.05   0.08    -0.08  -0.00   0.04
  28   1     0.06   0.01   0.04    -0.14  -0.04  -0.09    -0.07  -0.04  -0.09
  29   1    -0.05  -0.03   0.05     0.03  -0.04  -0.05     0.10   0.00  -0.09
  30   1    -0.05  -0.07  -0.03     0.02   0.02   0.03     0.10   0.05   0.03
  31   1    -0.01  -0.02   0.04     0.01  -0.03  -0.02     0.01   0.00  -0.06
  32   1    -0.03  -0.04   0.04     0.04   0.00  -0.00     0.08   0.02  -0.01
  33   1     0.00  -0.01   0.02     0.06   0.00  -0.04    -0.01   0.03   0.03
  34   1    -0.01  -0.01   0.01    -0.04  -0.04   0.05    -0.04   0.02   0.03
  35   1    -0.04  -0.02  -0.03    -0.04   0.19   0.20     0.00   0.07   0.11
  36   1    -0.01  -0.02   0.02    -0.07   0.25  -0.09    -0.00   0.08   0.03
  37   1    -0.04   0.07  -0.02     0.10  -0.14   0.08     0.05   0.02   0.05
  38   1    -0.02   0.05   0.04     0.00  -0.10  -0.15    -0.00   0.00   0.05
  39   1    -0.03   0.00   0.00    -0.02   0.02  -0.06     0.03  -0.10   0.07
  40   1    -0.03   0.03  -0.01     0.03  -0.08  -0.05     0.01   0.05   0.03
  41   1     0.01   0.01  -0.05    -0.00   0.04   0.09     0.01  -0.16  -0.17
  42   1    -0.03   0.03  -0.05     0.06  -0.04   0.10    -0.11  -0.01  -0.17
  43   1     0.01   0.01  -0.02     0.02  -0.03   0.07    -0.04   0.06  -0.13
  44   1    -0.00  -0.04  -0.00     0.01   0.07   0.04    -0.03  -0.10  -0.09
  45   1     0.07   0.05   0.02    -0.04  -0.10  -0.08    -0.06   0.10   0.13
  46   1     0.06  -0.01   0.04    -0.09   0.02  -0.09     0.01  -0.08   0.16
  47   1     0.07  -0.01   0.05    -0.06  -0.00  -0.06    -0.04   0.05   0.09
                     10                     11                     12
                        a                      a                      a 
 Frequencies --   128.0944               134.6566               167.1198
 Red. masses --     7.4698                 8.3591                 7.8653
 Frc consts  --     0.0000                 0.0000                 0.0000
 IR Inten    --     0.0160                 0.0603                 0.1518
 Raman Activ --     0.0000                 0.0000                 0.0000
 Depolar     --     0.0000                 0.0000                 0.0000
 Atom AN      X      Y      Z        X      Y      Z        X      Y      Z
   1   6     0.05   0.06   0.02    -0.03   0.07  -0.06    -0.03   0.07   0.06
   2   6     0.05   0.10  -0.00    -0.02  -0.13   0.05     0.06  -0.03   0.01
   3   6     0.09  -0.08   0.02     0.07  -0.35   0.16     0.06  -0.12  -0.03
   4   6     0.05   0.04   0.01    -0.00  -0.13   0.15     0.04   0.01  -0.05
   5   6    -0.08   0.04  -0.03    -0.02   0.08  -0.17    -0.11  -0.03  -0.03
   6   6    -0.54  -0.07  -0.04     0.20   0.06  -0.30     0.08   0.04   0.00
   7   6    -0.10  -0.00  -0.01     0.05  -0.04  -0.18    -0.36  -0.09   0.05
   8   6     0.01   0.06   0.05    -0.06   0.13   0.15    -0.04  -0.00   0.04
   9   6     0.05   0.13  -0.00    -0.12   0.32   0.19     0.09   0.17  -0.16
  10   6     0.18  -0.36  -0.12    -0.06  -0.02   0.06     0.06   0.21  -0.19
  11   6     0.06   0.00  -0.00     0.01  -0.00  -0.02    -0.03   0.08  -0.04
  12   6     0.10   0.00   0.06    -0.04  -0.04  -0.15     0.20  -0.09   0.27
  13   6     0.08  -0.00   0.03     0.02   0.02   0.06     0.19  -0.17   0.00
  14   6     0.05   0.04   0.00     0.03   0.03   0.07     0.09  -0.04  -0.08
  15   6    -0.02   0.03  -0.00    -0.01  -0.00  -0.05    -0.24  -0.02   0.09
  16   1     0.05  -0.02  -0.03     0.06   0.03  -0.02     0.01   0.02   0.01
  17   1    -0.01  -0.01   0.06    -0.05   0.00  -0.01    -0.05   0.00   0.02
  18   1    -0.00   0.08  -0.00    -0.03   0.08  -0.05    -0.01   0.06   0.03
  19   1    -0.01   0.06   0.03    -0.06  -0.05   0.02     0.01  -0.01   0.00
  20   1     0.03   0.05  -0.04     0.03  -0.02   0.00     0.04   0.00  -0.00
  21   1     0.02  -0.05   0.05     0.03  -0.14   0.12     0.02  -0.05   0.02
  22   1     0.04  -0.06  -0.03     0.05  -0.15  -0.01     0.01  -0.06  -0.03
  23   1     0.01   0.03  -0.00     0.01  -0.09   0.05     0.00   0.03  -0.02
  24   1     0.04   0.02   0.01    -0.02   0.01   0.11     0.04   0.01  -0.02
  25   1     0.00   0.08  -0.07    -0.03   0.03  -0.02    -0.07  -0.02   0.04
  26   1     0.03  -0.03   0.05    -0.04   0.07  -0.07    -0.07  -0.02  -0.06
  27   1    -0.24  -0.05   0.11     0.10   0.03  -0.15     0.10   0.01  -0.11
  28   1    -0.25  -0.03  -0.13     0.10   0.02  -0.03     0.09   0.06   0.10
  29   1     0.02  -0.05  -0.06     0.01  -0.02  -0.03    -0.18  -0.04   0.13
  30   1    -0.00   0.05   0.05     0.02  -0.07  -0.07    -0.19  -0.06  -0.09
  31   1     0.01   0.02   0.03    -0.04   0.10   0.05     0.03  -0.02   0.07
  32   1     0.00   0.01   0.03    -0.02  -0.02   0.11    -0.02  -0.00   0.01
  33   1    -0.05   0.07   0.09    -0.06   0.13   0.15     0.06   0.06  -0.04
  34   1     0.05   0.13  -0.06    -0.03   0.17  -0.01     0.03   0.05  -0.05
  35   1     0.09  -0.16  -0.18     0.02  -0.02  -0.04     0.02   0.07  -0.04
  36   1     0.06  -0.23   0.07    -0.06  -0.07   0.06     0.03   0.07  -0.06
  37   1    -0.03   0.05  -0.06     0.02   0.01  -0.01    -0.03   0.03  -0.02
  38   1     0.03   0.04   0.08     0.01   0.00   0.00    -0.07   0.01  -0.00
  39   1     0.05  -0.00   0.02    -0.07   0.02  -0.08     0.14  -0.07   0.13
  40   1     0.02   0.01   0.03     0.02  -0.06  -0.09    -0.01   0.02   0.17
  41   1     0.02  -0.01   0.01    -0.00   0.05   0.03     0.06  -0.11  -0.01
  42   1     0.02   0.00   0.01     0.03  -0.02   0.04     0.03  -0.02  -0.03
  43   1     0.01   0.01  -0.00     0.02  -0.01   0.04     0.02   0.02  -0.05
  44   1     0.02   0.02  -0.00    -0.00   0.03   0.03     0.06   0.00  -0.05
  45   1    -0.01  -0.00   0.00     0.02  -0.03  -0.04    -0.14  -0.02   0.10
  46   1    -0.01   0.01  -0.00    -0.05   0.01  -0.04    -0.03  -0.04   0.07
  47   1    -0.01   0.02  -0.01     0.01   0.01   0.01    -0.12   0.06  -0.04
                     13                     14                     15
                        a                      a                      a 
 Frequencies --   201.9723               204.0275               223.5984
 Red. masses --     6.9461                 7.7179                 4.2495
 Frc consts  --     0.0000                 0.0000                 0.0000
 IR Inten    --     0.1357                 0.0606                 0.0803
 Raman Activ --     0.0000                 0.0000                 0.0000
 Depolar     --     0.0000                 0.0000                 0.0000
 Atom AN      X      Y      Z        X      Y      Z        X      Y      Z
   1   6     0.01  -0.05  -0.13    -0.06   0.12   0.19    -0.05   0.03  -0.09
   2   6    -0.13  -0.05   0.04     0.20  -0.00  -0.05    -0.04  -0.23   0.05
   3   6    -0.08  -0.07   0.12     0.16  -0.16  -0.16    -0.05  -0.16   0.04
   4   6    -0.02  -0.02   0.03     0.04   0.09  -0.10     0.02   0.12  -0.15
   5   6     0.20   0.11  -0.10    -0.44  -0.08   0.02     0.00   0.05  -0.03
   6   6    -0.02   0.07  -0.08    -0.01   0.02   0.03     0.00   0.13   0.09
   7   6    -0.01   0.00   0.03     0.03   0.05   0.01     0.07   0.14   0.11
   8   6    -0.11   0.08   0.20     0.08   0.02  -0.05    -0.06   0.06   0.03
   9   6     0.11  -0.02  -0.06     0.02   0.00   0.03     0.04  -0.23  -0.04
  10   6     0.04   0.04  -0.15     0.05  -0.04   0.06    -0.00  -0.02   0.02
  11   6     0.05  -0.27  -0.12     0.10  -0.22   0.00    -0.02   0.08   0.04
  12   6     0.06   0.17   0.27    -0.02   0.11   0.04    -0.00  -0.01  -0.01
  13   6    -0.20   0.08  -0.02    -0.21   0.09  -0.02     0.08   0.00   0.03
  14   6    -0.15  -0.02  -0.01    -0.16  -0.01   0.00     0.04  -0.00  -0.07
  15   6     0.18  -0.01  -0.04     0.19  -0.01  -0.04    -0.03   0.01   0.02
  16   1     0.05  -0.02  -0.06    -0.02   0.02   0.05     0.31  -0.13  -0.21
  17   1     0.02  -0.02  -0.01    -0.10   0.00   0.07    -0.22  -0.16   0.24
  18   1    -0.03   0.00  -0.09     0.01   0.11   0.12    -0.13   0.40  -0.14
  19   1    -0.07  -0.02   0.01     0.06   0.01  -0.01    -0.04  -0.10  -0.01
  20   1    -0.05  -0.01   0.00     0.11   0.02  -0.02     0.01  -0.07   0.05
  21   1    -0.02  -0.03   0.05     0.06  -0.07   0.01     0.01  -0.05   0.03
  22   1    -0.02  -0.04   0.02     0.04  -0.09  -0.08    -0.06  -0.07  -0.01
  23   1    -0.01  -0.06  -0.01     0.01   0.13  -0.01    -0.04   0.09  -0.10
  24   1    -0.02   0.02   0.04     0.08   0.02  -0.05     0.10   0.04  -0.06
  25   1     0.10   0.04  -0.10    -0.22  -0.04   0.14     0.00  -0.00  -0.01
  26   1     0.11   0.05   0.04    -0.22  -0.06  -0.12     0.00  -0.00  -0.01
  27   1    -0.03  -0.00   0.02     0.04   0.06  -0.06    -0.01   0.04   0.04
  28   1    -0.04   0.05  -0.06     0.06  -0.03   0.08    -0.01   0.04   0.01
  29   1     0.00  -0.01   0.00     0.01   0.01   0.00     0.04   0.06   0.00
  30   1     0.01  -0.03   0.02     0.01   0.03   0.01     0.04   0.04   0.06
  31   1    -0.01   0.11   0.13     0.02  -0.02  -0.03    -0.02   0.05   0.02
  32   1    -0.12  -0.03   0.09     0.05   0.02  -0.03    -0.07   0.02  -0.01
  33   1     0.05  -0.02  -0.05    -0.01   0.00   0.01     0.02  -0.11  -0.10
  34   1     0.08  -0.03   0.02    -0.00   0.01   0.00     0.03  -0.13   0.05
  35   1     0.02   0.04   0.03     0.03   0.01   0.05    -0.03  -0.00   0.03
  36   1    -0.02   0.06  -0.09    -0.01   0.01  -0.01     0.03   0.02  -0.01
  37   1    -0.02  -0.20   0.05     0.03  -0.14   0.06    -0.01   0.05  -0.01
  38   1     0.05  -0.12  -0.17     0.07  -0.09  -0.09    -0.01   0.04   0.05
  39   1     0.18   0.04   0.12     0.04   0.04   0.01    -0.03  -0.01  -0.01
  40   1    -0.05   0.16   0.18    -0.00   0.08   0.02     0.01  -0.03  -0.02
  41   1    -0.03  -0.05  -0.05    -0.05   0.00  -0.02     0.00   0.02   0.03
  42   1    -0.11   0.07  -0.05    -0.08   0.04  -0.02     0.06  -0.00   0.02
  43   1    -0.07  -0.02  -0.00    -0.06  -0.02   0.01    -0.01   0.01  -0.04
  44   1    -0.05  -0.04  -0.00    -0.06  -0.04   0.01     0.03  -0.01  -0.04
  45   1    -0.00   0.06   0.06     0.07   0.05  -0.02     0.08  -0.01  -0.09
  46   1     0.19   0.04   0.00     0.09   0.03  -0.02    -0.16  -0.04  -0.01
  47   1     0.05  -0.10  -0.10     0.09  -0.08  -0.01     0.02   0.06   0.14
                     16                     17                     18
                        a                      a                      a 
 Frequencies --   236.0084               241.7680               259.0194
 Red. masses --     3.4430                 5.1024                 6.5546
 Frc consts  --     0.0000                 0.0000                 0.0000
 IR Inten    --     0.0105                 0.0990                 0.2565
 Raman Activ --     0.0000                 0.0000                 0.0000
 Depolar     --     0.0000                 0.0000                 0.0000
 Atom AN      X      Y      Z        X      Y      Z        X      Y      Z
   1   6    -0.03   0.02   0.02    -0.03  -0.01   0.06     0.03  -0.02  -0.15
   2   6     0.02  -0.01  -0.02     0.02   0.10  -0.07    -0.18   0.06   0.07
   3   6     0.03  -0.08  -0.02     0.09  -0.14  -0.03    -0.07  -0.28   0.17
   4   6    -0.00   0.03  -0.03    -0.02   0.00   0.04     0.08   0.16  -0.17
   5   6    -0.09   0.01  -0.02    -0.15   0.06  -0.08     0.07   0.09  -0.07
   6   6    -0.01   0.04  -0.01    -0.04   0.06  -0.11    -0.02   0.14   0.06
   7   6     0.14   0.06   0.01     0.17   0.04  -0.01    -0.25   0.06   0.09
   8   6    -0.09   0.03   0.07    -0.19   0.07   0.21     0.08  -0.02  -0.15
   9   6    -0.02  -0.19   0.01     0.07  -0.29  -0.04    -0.01  -0.12   0.02
  10   6    -0.06  -0.04   0.02    -0.03   0.00  -0.04     0.07  -0.07   0.20
  11   6    -0.04   0.09  -0.01    -0.05   0.07  -0.01     0.13  -0.04   0.14
  12   6    -0.02  -0.05  -0.09     0.04  -0.00   0.07     0.02  -0.02  -0.08
  13   6     0.09  -0.04  -0.10     0.13  -0.01   0.03    -0.01   0.01  -0.03
  14   6     0.16   0.09   0.19     0.07   0.01  -0.12    -0.00   0.04   0.01
  15   6    -0.05   0.02  -0.04    -0.05   0.04   0.02     0.04   0.04  -0.02
  16   1     0.00  -0.00  -0.00    -0.22   0.10   0.14    -0.09   0.09   0.05
  17   1    -0.03  -0.01   0.02     0.11   0.11  -0.16     0.15   0.10  -0.18
  18   1    -0.01   0.03   0.01     0.07  -0.24   0.11     0.03  -0.22  -0.06
  19   1    -0.00   0.00   0.00    -0.01   0.07   0.02    -0.13   0.06   0.07
  20   1     0.02   0.01  -0.01     0.02   0.06  -0.07    -0.05   0.05  -0.06
  21   1     0.01  -0.04   0.02     0.03  -0.08   0.07    -0.02  -0.16   0.18
  22   1     0.01  -0.05  -0.03     0.06  -0.09  -0.06    -0.02  -0.20  -0.06
  23   1    -0.00   0.03  -0.01     0.01  -0.01   0.04    -0.05   0.12  -0.14
  24   1     0.02   0.02  -0.01    -0.02   0.02   0.04     0.17   0.07  -0.06
  25   1    -0.04  -0.00   0.02    -0.07   0.02   0.01     0.03   0.02  -0.04
  26   1    -0.04  -0.00  -0.03    -0.07   0.03  -0.05     0.04  -0.00  -0.01
  27   1    -0.02   0.03   0.01    -0.03   0.03  -0.01     0.03   0.01  -0.02
  28   1    -0.01  -0.01  -0.02    -0.02  -0.01  -0.05     0.01   0.09   0.05
  29   1     0.08   0.03  -0.05     0.10   0.02  -0.08    -0.12   0.00   0.11
  30   1     0.09   0.01   0.05     0.12  -0.02   0.06    -0.14   0.03  -0.05
  31   1    -0.04   0.07   0.03    -0.06   0.17   0.13     0.03  -0.12  -0.08
  32   1    -0.08  -0.01   0.03    -0.20  -0.05   0.10     0.09   0.07  -0.11
  33   1     0.00  -0.08  -0.06     0.04  -0.13  -0.13    -0.03  -0.05  -0.03
  34   1     0.01  -0.10   0.05     0.07  -0.17   0.08    -0.03  -0.06   0.02
  35   1    -0.05  -0.01   0.02    -0.05   0.01   0.04     0.01  -0.02   0.06
  36   1    -0.00   0.00   0.00     0.02   0.05  -0.04     0.04  -0.01   0.05
  37   1    -0.01   0.07  -0.03    -0.03   0.04  -0.02     0.06  -0.01   0.05
  38   1    -0.02   0.04   0.04    -0.02   0.03   0.02     0.06  -0.01   0.04
  39   1    -0.03  -0.02  -0.03     0.03  -0.01   0.03    -0.05   0.00  -0.04
  40   1    -0.00  -0.03  -0.04    -0.01  -0.01   0.04     0.04  -0.01  -0.07
  41   1     0.08  -0.02  -0.08     0.01   0.01   0.04    -0.00   0.01  -0.01
  42   1    -0.05  -0.01  -0.05     0.07   0.00   0.02    -0.01  -0.01  -0.00
  43   1     0.12   0.01   0.09    -0.00   0.02  -0.06     0.01   0.01   0.01
  44   1     0.01   0.09   0.11     0.05  -0.01  -0.06    -0.01   0.02   0.01
  45   1    -0.34  -0.01   0.31     0.10  -0.01  -0.12     0.00   0.02   0.00
  46   1     0.40   0.10   0.05    -0.20  -0.05  -0.01     0.03   0.02  -0.01
  47   1    -0.16  -0.08  -0.46     0.02   0.09   0.18     0.01  -0.01  -0.02
                     19                     20                     21
                        a                      a                      a 
 Frequencies --   276.7365               298.0103               303.8687
 Red. masses --     8.7067                 7.9589                 8.4813
 Frc consts  --     0.0000                 0.0000                 0.0000
 IR Inten    --     0.0095                 0.1976                 0.0096
 Raman Activ --     0.0000                 0.0000                 0.0000
 Depolar     --     0.0000                 0.0000                 0.0000
 Atom AN      X      Y      Z        X      Y      Z        X      Y      Z
   1   6    -0.06  -0.02  -0.05    -0.34  -0.09   0.09    -0.03  -0.01  -0.02
   2   6    -0.07   0.02  -0.04     0.08  -0.11  -0.35    -0.04   0.00  -0.01
   3   6    -0.00  -0.23   0.01     0.17  -0.16  -0.22    -0.01  -0.07   0.00
   4   6     0.07  -0.01  -0.14    -0.08  -0.13   0.15     0.05  -0.02  -0.08
   5   6     0.09  -0.14   0.11     0.25   0.10   0.01     0.07  -0.13   0.13
   6   6     0.06  -0.02   0.27    -0.01   0.15   0.15     0.07  -0.07   0.18
   7   6     0.27   0.14   0.14    -0.13   0.18   0.12     0.12   0.09  -0.01
   8   6     0.12   0.08   0.03    -0.01   0.10  -0.08    -0.16  -0.02  -0.12
   9   6     0.12   0.24  -0.07    -0.03  -0.01  -0.02    -0.34   0.10   0.11
  10   6     0.01   0.12  -0.28     0.03  -0.03   0.07    -0.25  -0.11   0.04
  11   6    -0.16   0.14  -0.14     0.05  -0.02   0.06    -0.07  -0.20  -0.13
  12   6    -0.12  -0.01  -0.04     0.01  -0.01  -0.02     0.08   0.04   0.18
  13   6    -0.15  -0.02   0.05     0.00   0.00  -0.01     0.26   0.03  -0.04
  14   6    -0.12  -0.14   0.08     0.00   0.02  -0.00     0.22   0.16  -0.14
  15   6    -0.06  -0.16   0.06     0.02   0.02  -0.01     0.02   0.19  -0.06
  16   1    -0.08   0.03   0.03    -0.19  -0.05   0.02    -0.02   0.01   0.00
  17   1     0.03   0.03  -0.07    -0.19  -0.05   0.03     0.01   0.01  -0.02
  18   1     0.00  -0.09   0.01    -0.03   0.03   0.17    -0.00  -0.03  -0.00
  19   1    -0.06   0.04   0.02     0.04  -0.01  -0.09    -0.02   0.01   0.01
  20   1    -0.00   0.03  -0.06     0.08  -0.01  -0.09    -0.01   0.01  -0.02
  21   1    -0.00  -0.11   0.08     0.10  -0.05  -0.02    -0.01  -0.03   0.02
  22   1     0.01  -0.13  -0.06     0.11  -0.05  -0.08    -0.00  -0.04  -0.02
  23   1    -0.03   0.07  -0.09     0.05  -0.16   0.12    -0.02   0.05  -0.06
  24   1     0.12  -0.01  -0.08    -0.16  -0.01   0.11     0.08  -0.02  -0.06
  25   1     0.04  -0.07   0.02     0.14   0.01  -0.10     0.02  -0.06   0.03
  26   1     0.04  -0.08   0.04     0.14   0.06   0.10     0.02  -0.06   0.03
  27   1    -0.01   0.01   0.11    -0.01   0.01   0.06     0.02  -0.02   0.06
  28   1    -0.01  -0.03   0.04    -0.03   0.09   0.02     0.02  -0.05   0.04
  29   1     0.12   0.07  -0.03    -0.06   0.06   0.07     0.06   0.09  -0.07
  30   1     0.12   0.08   0.10    -0.07   0.07   0.01     0.08   0.04   0.06
  31   1     0.03   0.03   0.01     0.00  -0.02  -0.04    -0.09  -0.02  -0.10
  32   1     0.04   0.03   0.01     0.02   0.07  -0.07     0.01   0.01  -0.03
  33   1     0.06   0.10   0.03    -0.03  -0.02  -0.03    -0.13   0.06   0.10
  34   1     0.05   0.12  -0.05    -0.01  -0.02   0.01    -0.13   0.08  -0.03
  35   1     0.02   0.02  -0.12     0.01  -0.01   0.01    -0.04  -0.03   0.01
  36   1    -0.00  -0.00  -0.05     0.01  -0.01   0.02    -0.13  -0.05   0.01
  37   1    -0.07   0.08  -0.08     0.02  -0.01   0.02    -0.03  -0.14   0.02
  38   1    -0.09   0.05   0.01     0.02  -0.01   0.01     0.01  -0.09  -0.12
  39   1    -0.04   0.00  -0.02    -0.01  -0.00  -0.01     0.14  -0.01   0.09
  40   1    -0.04  -0.02  -0.01     0.02  -0.00  -0.02    -0.06   0.04   0.15
  41   1    -0.04   0.01   0.02     0.00   0.00  -0.00     0.08  -0.02  -0.02
  42   1    -0.03  -0.02   0.03    -0.00  -0.00  -0.00     0.07   0.04  -0.04
  43   1    -0.04  -0.05   0.03     0.00   0.00   0.00     0.06   0.07  -0.06
  44   1    -0.04  -0.05   0.03    -0.00   0.01   0.00     0.09   0.06  -0.06
  45   1    -0.02  -0.04   0.02     0.00   0.01   0.00     0.01   0.04  -0.02
  46   1    -0.01  -0.04   0.01     0.01   0.01  -0.00    -0.03   0.03  -0.01
  47   1    -0.01  -0.06   0.01     0.01  -0.00  -0.01    -0.00   0.10   0.00
                     22                     23                     24
                        a                      a                      a 
 Frequencies --   385.7901               406.9093               408.7424
 Red. masses --     8.4093                 8.4952                 8.6395
 Frc consts  --     0.0000                 0.0000                 0.0000
 IR Inten    --     0.2007                 0.0658                 0.0696
 Raman Activ --     0.0000                 0.0000                 0.0000
 Depolar     --     0.0000                 0.0000                 0.0000
 Atom AN      X      Y      Z        X      Y      Z        X      Y      Z
   1   6     0.01   0.00  -0.01    -0.30  -0.09  -0.05    -0.17  -0.05  -0.02
   2   6    -0.01   0.01   0.01    -0.11  -0.06  -0.19    -0.05  -0.04  -0.11
   3   6    -0.03   0.00  -0.01     0.09   0.10   0.12     0.07   0.05   0.07
   4   6     0.06  -0.10  -0.06     0.17   0.32   0.06     0.07   0.23   0.06
   5   6     0.05  -0.21   0.16     0.08   0.10   0.27     0.01   0.16   0.07
   6   6     0.04  -0.17   0.11     0.05  -0.18  -0.08     0.01  -0.02  -0.09
   7   6    -0.10   0.08  -0.20    -0.01  -0.16  -0.22     0.08  -0.14   0.00
   8   6    -0.31   0.22  -0.02    -0.05  -0.05   0.03     0.11  -0.16   0.05
   9   6    -0.06   0.12  -0.25     0.01   0.02  -0.01     0.04  -0.02   0.08
  10   6     0.19   0.06   0.09     0.06  -0.00   0.05    -0.10   0.04  -0.09
  11   6     0.13   0.00   0.25     0.09  -0.00   0.02    -0.13   0.04  -0.06
  12   6     0.08  -0.17  -0.04    -0.04   0.18  -0.04     0.10  -0.32   0.06
  13   6    -0.06  -0.12   0.02     0.00   0.14  -0.05    -0.02  -0.26   0.10
  14   6    -0.14   0.12   0.01     0.11  -0.13   0.00    -0.21   0.22   0.00
  15   6     0.11   0.14  -0.07    -0.11  -0.17   0.08     0.19   0.27  -0.13
  16   1     0.01  -0.00  -0.00    -0.14  -0.04  -0.02    -0.08  -0.03  -0.01
  17   1     0.01   0.00  -0.00    -0.14  -0.04  -0.01    -0.09  -0.03   0.00
  18   1    -0.00  -0.00  -0.01    -0.05   0.01   0.07    -0.03   0.01   0.04
  19   1    -0.00   0.00   0.00    -0.05  -0.02  -0.05    -0.02  -0.01  -0.03
  20   1    -0.01   0.00   0.00    -0.05  -0.02  -0.05    -0.02  -0.01  -0.03
  21   1    -0.03   0.01  -0.03     0.09   0.03   0.06     0.06   0.01   0.05
  22   1    -0.01   0.01   0.01     0.03  -0.00   0.00     0.02  -0.01  -0.00
  23   1    -0.01   0.02  -0.04    -0.02   0.23  -0.06    -0.01   0.12  -0.01
  24   1     0.05  -0.06  -0.07     0.20   0.06  -0.06     0.09   0.06  -0.00
  25   1     0.02  -0.08   0.05     0.01   0.07   0.08    -0.00   0.07   0.02
  26   1     0.02  -0.09   0.04     0.01   0.02   0.06    -0.00   0.05   0.01
  27   1     0.03  -0.09   0.02     0.02  -0.11  -0.02    -0.00  -0.01  -0.01
  28   1     0.02  -0.08   0.04     0.02  -0.09  -0.03    -0.00  -0.01  -0.04
  29   1    -0.03   0.07  -0.08    -0.01  -0.06  -0.05     0.03  -0.06   0.00
  30   1    -0.00   0.02  -0.03     0.00  -0.07  -0.07     0.02  -0.05  -0.00
  31   1    -0.07   0.23   0.11    -0.01   0.06   0.05     0.03  -0.08  -0.02
  32   1    -0.24  -0.04   0.07    -0.06  -0.08   0.07     0.08  -0.03   0.01
  33   1    -0.05   0.02  -0.10    -0.00   0.01   0.01     0.05   0.01   0.05
  34   1     0.01   0.01  -0.04     0.00   0.01  -0.01    -0.00   0.01   0.01
  35   1     0.10   0.03   0.02     0.03   0.00   0.01    -0.05   0.00  -0.02
  36   1     0.10   0.03   0.03     0.02  -0.00   0.01    -0.04   0.01  -0.02
  37   1     0.07   0.05   0.04     0.02  -0.04   0.04    -0.03   0.09  -0.07
  38   1     0.01   0.01   0.11     0.07  -0.01  -0.04    -0.13   0.03   0.07
  39   1    -0.06  -0.05  -0.03    -0.01   0.06  -0.02     0.04  -0.11   0.03
  40   1     0.08  -0.06  -0.08     0.01   0.06  -0.03    -0.01  -0.10   0.06
  41   1    -0.03  -0.05   0.02     0.02   0.06  -0.03    -0.04  -0.12   0.05
  42   1    -0.03  -0.07   0.02     0.01   0.07  -0.03    -0.03  -0.12   0.05
  43   1    -0.03   0.03   0.01     0.03  -0.04   0.00    -0.05   0.07  -0.00
  44   1    -0.04   0.03   0.00     0.02  -0.04   0.01    -0.05   0.07  -0.01
  45   1     0.06   0.08  -0.04    -0.06  -0.08   0.04     0.10   0.15  -0.07
  46   1     0.07   0.08  -0.04    -0.06  -0.08   0.04     0.10   0.15  -0.07
  47   1     0.07  -0.04  -0.01    -0.07   0.03   0.01     0.12  -0.06  -0.02
                     25                     26                     27
                        a                      a                      a 
 Frequencies --   490.8733               511.0533               513.9517
 Red. masses --     8.7442                 8.3603                 8.4761
 Frc consts  --     0.0000                 0.0000                 0.0000
 IR Inten    --     0.4245                 1.1610                 1.2688
 Raman Activ --     0.0000                 0.0000                 0.0000
 Depolar     --     0.0000                 0.0000                 0.0000
 Atom AN      X      Y      Z        X      Y      Z        X      Y      Z
   1   6    -0.02  -0.01  -0.00     0.21   0.07   0.06    -0.06  -0.02  -0.02
   2   6    -0.01  -0.00  -0.01     0.14  -0.00   0.04    -0.04  -0.01  -0.01
   3   6     0.02   0.01   0.03    -0.12  -0.14  -0.26     0.05   0.04   0.09
   4   6     0.01   0.03   0.02    -0.49   0.28  -0.04     0.11  -0.01   0.03
   5   6    -0.02   0.05  -0.06     0.03   0.17   0.22    -0.03   0.06  -0.18
   6   6    -0.01   0.05  -0.01     0.07  -0.07   0.02    -0.01   0.15   0.02
   7   6     0.06  -0.08   0.14     0.05  -0.14  -0.04     0.10  -0.08   0.28
   8   6     0.03  -0.14   0.04    -0.08  -0.20   0.00    -0.31  -0.42  -0.07
   9   6     0.13   0.10  -0.22    -0.04   0.03  -0.06    -0.19   0.07  -0.23
  10   6     0.15   0.03  -0.08     0.03   0.03   0.00     0.08   0.07   0.03
  11   6    -0.24  -0.27   0.33     0.05   0.01   0.02     0.20   0.09   0.02
  12   6    -0.44  -0.07   0.07     0.04   0.01  -0.01     0.21   0.05  -0.05
  13   6     0.09   0.02  -0.09    -0.01   0.01   0.00    -0.05   0.02   0.02
  14   6     0.19   0.09  -0.09    -0.01  -0.01   0.01    -0.07  -0.04   0.03
  15   6     0.02   0.15  -0.04    -0.00  -0.01   0.00    -0.01  -0.07   0.02
  16   1    -0.01  -0.00  -0.00     0.10   0.03   0.02    -0.03  -0.01  -0.00
  17   1    -0.01  -0.00  -0.00     0.08   0.03   0.01    -0.03  -0.01  -0.00
  18   1    -0.00  -0.00   0.00     0.04   0.01  -0.03    -0.01  -0.00   0.01
  19   1    -0.01  -0.00  -0.00     0.08   0.00   0.01    -0.03  -0.00  -0.00
  20   1    -0.01  -0.00  -0.00     0.09   0.01   0.02    -0.03  -0.00  -0.01
  21   1     0.01   0.00   0.01     0.05  -0.11   0.10     0.00   0.03  -0.01
  22   1     0.01   0.01   0.01    -0.07  -0.18  -0.21     0.02   0.04   0.05
  23   1     0.01  -0.00   0.01    -0.11   0.09   0.04     0.04  -0.04   0.01
  24   1    -0.00   0.02   0.02    -0.16   0.05  -0.04     0.01   0.03   0.05
  25   1    -0.01   0.02  -0.01     0.13  -0.02  -0.09    -0.05   0.04   0.01
  26   1    -0.01   0.02  -0.02     0.10   0.14   0.20    -0.05   0.00  -0.10
  27   1    -0.01   0.04   0.00     0.03  -0.06   0.00    -0.02   0.11   0.01
  28   1    -0.01   0.03  -0.01     0.03  -0.05   0.01    -0.02   0.09   0.00
  29   1     0.04  -0.01   0.01     0.03  -0.01  -0.04     0.10   0.09  -0.08
  30   1     0.05  -0.03   0.07     0.05  -0.06   0.02     0.15  -0.06   0.21
  31   1     0.05  -0.04   0.06    -0.02  -0.03   0.03    -0.06  -0.15   0.01
  32   1    -0.02  -0.04   0.00    -0.04  -0.08   0.02    -0.10  -0.08  -0.07
  33   1     0.07   0.07   0.01     0.01   0.04   0.05    -0.02   0.10   0.09
  34   1     0.03   0.08  -0.11    -0.04   0.05  -0.06    -0.14   0.12  -0.17
  35   1     0.12   0.03   0.00     0.02   0.01   0.00     0.06   0.03   0.01
  36   1     0.10   0.03  -0.02     0.02   0.01   0.00     0.06   0.03   0.01
  37   1    -0.11  -0.18   0.16     0.02   0.01   0.01     0.08   0.06  -0.01
  38   1    -0.03  -0.12  -0.02     0.01   0.00   0.01     0.05   0.04   0.03
  39   1    -0.28  -0.03  -0.01     0.00   0.01  -0.01     0.07   0.02  -0.02
  40   1    -0.05  -0.09  -0.09     0.02   0.01  -0.01     0.07   0.04  -0.02
  41   1     0.06   0.05  -0.05    -0.00  -0.00  -0.00    -0.02  -0.01   0.01
  42   1     0.04   0.04  -0.05    -0.00  -0.00   0.00    -0.02  -0.01   0.01
  43   1     0.07   0.05  -0.03    -0.00  -0.00   0.00    -0.03  -0.02   0.01
  44   1     0.06   0.05  -0.02    -0.00  -0.00   0.00    -0.02  -0.02   0.01
  45   1    -0.01   0.03  -0.00    -0.00  -0.00   0.00    -0.00  -0.02   0.01
  46   1    -0.01   0.02  -0.00    -0.00  -0.00   0.00    -0.00  -0.02   0.01
  47   1    -0.01   0.08  -0.02    -0.00  -0.00   0.00     0.00  -0.03   0.01
                     28                     29                     30
                        a                      a                      a 
 Frequencies --   754.5529               757.6950               770.3411
 Red. masses --     2.1604                 2.3940                 2.1073
 Frc consts  --     0.0000                 0.0000                 0.0000
 IR Inten    --    11.4158                21.5074                11.2703
 Raman Activ --     0.0000                 0.0000                 0.0000
 Depolar     --     0.0000                 0.0000                 0.0000
 Atom AN      X      Y      Z        X      Y      Z        X      Y      Z
   1   6     0.02   0.00   0.00     0.03   0.01   0.01    -0.01   0.00  -0.01
   2   6     0.04  -0.02  -0.03     0.07  -0.07  -0.04    -0.02   0.04   0.00
   3   6     0.02  -0.05   0.04     0.03  -0.14   0.05    -0.00   0.05  -0.00
   4   6    -0.05  -0.07   0.05    -0.10  -0.11   0.07     0.03   0.02  -0.01
   5   6    -0.08  -0.03   0.01    -0.13  -0.01   0.01     0.01  -0.02  -0.00
   6   6    -0.09  -0.03  -0.09    -0.05   0.06  -0.02    -0.04  -0.04  -0.01
   7   6    -0.11  -0.03   0.03     0.05   0.04  -0.01    -0.08  -0.02   0.00
   8   6    -0.11   0.06   0.08     0.08  -0.02  -0.04    -0.04   0.04   0.03
   9   6    -0.02   0.09   0.05     0.04  -0.10  -0.03     0.02   0.05  -0.01
  10   6     0.02   0.08  -0.04     0.01  -0.10   0.03     0.06  -0.02   0.03
  11   6     0.01   0.03   0.01    -0.01  -0.05  -0.01    -0.01  -0.09   0.02
  12   6     0.02   0.01   0.03    -0.03  -0.01  -0.03    -0.09  -0.05  -0.09
  13   6     0.01  -0.01   0.03    -0.02   0.02  -0.03    -0.06  -0.02  -0.16
  14   6    -0.01   0.00   0.01     0.01  -0.00  -0.02    -0.00  -0.03  -0.11
  15   6    -0.00  -0.00   0.00     0.00   0.00  -0.00     0.00   0.01  -0.01
  16   1    -0.00   0.02   0.01     0.02   0.06   0.05    -0.02  -0.04  -0.03
  17   1    -0.02   0.00  -0.02    -0.05   0.01  -0.06     0.03  -0.01   0.03
  18   1     0.01   0.01   0.02     0.01   0.03   0.02     0.00  -0.02   0.00
  19   1    -0.04   0.05   0.05    -0.09   0.14   0.14     0.04  -0.07  -0.07
  20   1     0.04   0.04  -0.09     0.08   0.10  -0.22    -0.02  -0.04   0.10
  21   1     0.01   0.07  -0.13     0.03   0.12  -0.26    -0.02  -0.04   0.09
  22   1    -0.01   0.09   0.12    -0.04   0.18   0.23     0.03  -0.06  -0.07
  23   1    -0.08   0.12  -0.05    -0.12   0.17  -0.07     0.03  -0.03   0.02
  24   1     0.14  -0.02  -0.04     0.21  -0.02  -0.04    -0.04   0.00   0.01
  25   1     0.10   0.07  -0.19     0.11   0.04  -0.21     0.00   0.02  -0.01
  26   1     0.12   0.02   0.19     0.12   0.06   0.20     0.01  -0.03   0.00
  27   1     0.16   0.02  -0.28     0.02   0.13  -0.09     0.07  -0.04  -0.11
  28   1     0.16   0.04   0.22     0.06  -0.02   0.08     0.06   0.03   0.10
  29   1     0.14   0.00  -0.25    -0.03  -0.02   0.08     0.07  -0.00  -0.13
  30   1     0.16   0.02   0.24    -0.05   0.04  -0.07     0.08   0.02   0.12
  31   1    -0.02  -0.20  -0.08     0.02   0.12   0.05     0.00  -0.08  -0.02
  32   1     0.17   0.12  -0.05    -0.10  -0.06   0.02     0.07   0.05  -0.02
  33   1     0.08  -0.07  -0.23    -0.07   0.05   0.20     0.00  -0.01  -0.06
  34   1     0.05  -0.17   0.19    -0.02   0.15  -0.16     0.04  -0.03   0.04
  35   1     0.10  -0.04  -0.20    -0.07   0.06   0.23     0.07   0.03   0.07
  36   1     0.00  -0.14   0.12    -0.01   0.17  -0.15    -0.01   0.04  -0.04
  37   1     0.03  -0.06   0.06    -0.04   0.09  -0.09    -0.01   0.07  -0.07
  38   1    -0.01  -0.03  -0.09     0.01   0.04   0.13     0.00   0.02   0.12
  39   1    -0.06   0.02  -0.02     0.06  -0.03   0.03     0.19  -0.14   0.12
  40   1     0.03  -0.05  -0.03    -0.04   0.06   0.04    -0.12   0.22   0.13
  41   1     0.04  -0.05  -0.04    -0.04   0.06   0.04    -0.22   0.27   0.22
  42   1    -0.06   0.02  -0.03     0.07  -0.02   0.04     0.34  -0.12   0.16
  43   1    -0.04   0.01  -0.01     0.05  -0.01   0.02     0.30  -0.07   0.11
  44   1     0.03  -0.02  -0.03    -0.03   0.02   0.03    -0.19   0.15   0.20
  45   1     0.00  -0.01  -0.01    -0.00   0.01   0.01    -0.01   0.12   0.03
  46   1    -0.00   0.01  -0.01     0.00  -0.01   0.01     0.04  -0.09   0.07
  47   1     0.00  -0.01  -0.00    -0.00   0.01   0.00     0.00   0.03   0.03
                     31                     32                     33
                        a                      a                      a 
 Frequencies --   783.2502               802.9701               822.0431
 Red. masses --     2.2674                 2.9938                 2.9972
 Frc consts  --     0.0000                 0.0000                 0.0000
 IR Inten    --     1.2088                 1.7695                 0.7274
 Raman Activ --     0.0000                 0.0000                 0.0000
 Depolar     --     0.0000                 0.0000                 0.0000
 Atom AN      X      Y      Z        X      Y      Z        X      Y      Z
   1   6    -0.02   0.00  -0.02    -0.00   0.04  -0.02     0.01   0.03  -0.00
   2   6    -0.04   0.09  -0.01    -0.02   0.16  -0.07     0.01   0.05  -0.05
   3   6     0.00   0.09   0.01     0.02   0.05   0.08     0.00  -0.01   0.04
   4   6     0.06   0.00  -0.01    -0.01  -0.08   0.04    -0.05  -0.04   0.04
   5   6    -0.01  -0.04  -0.01    -0.14  -0.07  -0.07    -0.05  -0.02  -0.03
   6   6    -0.10  -0.04  -0.01    -0.09   0.03   0.02     0.03   0.02  -0.01
   7   6    -0.10   0.01  -0.02     0.09   0.04   0.02     0.07  -0.02   0.06
   8   6     0.00   0.06   0.02     0.10  -0.05  -0.07     0.03  -0.02  -0.02
   9   6     0.04  -0.04   0.03     0.02  -0.10  -0.02    -0.02   0.07  -0.08
  10   6     0.04  -0.14  -0.04    -0.06   0.05   0.04     0.02   0.07   0.13
  11   6     0.00  -0.13  -0.02    -0.01   0.16  -0.02    -0.02  -0.04  -0.00
  12   6    -0.02  -0.01  -0.00     0.04   0.04   0.04    -0.14  -0.08  -0.19
  13   6    -0.01   0.08   0.07     0.04  -0.07   0.00    -0.04  -0.02  -0.08
  14   6     0.06   0.02   0.08    -0.06  -0.01  -0.04     0.08   0.05   0.18
  15   6     0.01   0.01   0.01    -0.01  -0.01  -0.01     0.02   0.03   0.06
  16   1    -0.05  -0.08  -0.06    -0.12  -0.15  -0.11    -0.05  -0.05  -0.04
  17   1     0.06  -0.01   0.07     0.12  -0.02   0.14     0.04  -0.01   0.05
  18   1     0.00  -0.03   0.00     0.04  -0.06   0.04     0.02  -0.02   0.03
  19   1     0.07  -0.14  -0.15     0.06  -0.20  -0.24     0.01  -0.06  -0.08
  20   1    -0.03  -0.08   0.20     0.02  -0.09   0.29     0.02  -0.02   0.08
  21   1    -0.04  -0.07   0.15    -0.07  -0.06   0.11    -0.02  -0.00   0.00
  22   1     0.07  -0.09  -0.12     0.14  -0.03  -0.04     0.05   0.02   0.02
  23   1     0.04  -0.04   0.02    -0.05   0.08  -0.04    -0.06   0.07  -0.03
  24   1    -0.04  -0.00   0.01     0.11  -0.02  -0.02     0.09  -0.01  -0.02
  25   1     0.03   0.05  -0.06     0.08   0.05  -0.21     0.02  -0.01  -0.05
  26   1     0.05  -0.06   0.05     0.12  -0.02   0.16     0.01   0.04   0.04
  27   1     0.11  -0.01  -0.19     0.04   0.14  -0.12    -0.04   0.05   0.05
  28   1     0.11   0.03   0.19     0.08  -0.03   0.12    -0.03  -0.02  -0.06
  29   1     0.08  -0.02  -0.15    -0.02  -0.03   0.09    -0.04  -0.00   0.10
  30   1     0.08   0.07   0.13    -0.07   0.07  -0.08    -0.04  -0.04  -0.06
  31   1     0.00  -0.03  -0.01     0.02   0.17   0.06     0.02   0.04   0.03
  32   1     0.04   0.04  -0.01    -0.15  -0.09   0.03    -0.04  -0.03   0.01
  33   1    -0.07   0.02   0.11     0.00   0.03   0.11     0.05  -0.01  -0.11
  34   1     0.07   0.10  -0.06    -0.08   0.05  -0.10    -0.06  -0.07   0.04
  35   1    -0.01   0.10   0.29    -0.11  -0.06  -0.12     0.09  -0.02  -0.10
  36   1    -0.06   0.20  -0.23     0.06  -0.07   0.10     0.02  -0.09   0.13
  37   1    -0.09   0.15  -0.18     0.05  -0.14   0.15     0.09   0.03   0.00
  38   1    -0.00   0.07   0.24     0.01  -0.05  -0.22    -0.01  -0.01   0.01
  39   1    -0.00   0.06  -0.04    -0.08   0.01  -0.01     0.25  -0.15   0.11
  40   1     0.01  -0.03  -0.02     0.03  -0.06  -0.03    -0.18   0.22   0.17
  41   1     0.11  -0.05  -0.11    -0.03  -0.07   0.03     0.01   0.22  -0.01
  42   1    -0.16   0.06  -0.06     0.03   0.00  -0.00     0.02  -0.16   0.09
  43   1    -0.18   0.05  -0.08     0.08  -0.04   0.04    -0.23   0.17  -0.14
  44   1     0.13  -0.12  -0.12    -0.07   0.07   0.06     0.16  -0.25  -0.14
  45   1    -0.00  -0.11  -0.02     0.01   0.08   0.01     0.00  -0.27  -0.04
  46   1    -0.04   0.07  -0.06     0.03  -0.04   0.04    -0.07   0.21  -0.15
  47   1    -0.02   0.01  -0.03     0.02  -0.02   0.03    -0.03  -0.01  -0.10
                     34                     35                     36
                        a                      a                      a 
 Frequencies --   834.2100               873.0844               893.0850
 Red. masses --     3.8246                 5.1250                 6.2984
 Frc consts  --     0.0000                 0.0000                 0.0000
 IR Inten    --     0.1848                 0.6654                 0.7098
 Raman Activ --     0.0000                 0.0000                 0.0000
 Depolar     --     0.0000                 0.0000                 0.0000
 Atom AN      X      Y      Z        X      Y      Z        X      Y      Z
   1   6    -0.06  -0.07  -0.01     0.00  -0.05  -0.02    -0.18   0.03   0.02
   2   6    -0.04  -0.11   0.12     0.03  -0.04   0.01    -0.16   0.05   0.19
   3   6     0.03   0.07  -0.06     0.07   0.15   0.13     0.04  -0.22  -0.36
   4   6     0.14   0.14  -0.10    -0.02   0.14  -0.05     0.24  -0.05   0.01
   5   6     0.03   0.03  -0.03    -0.11  -0.09  -0.19    -0.02   0.19   0.18
   6   6    -0.16  -0.04   0.13    -0.04  -0.08   0.10    -0.05   0.08   0.03
   7   6    -0.06   0.01  -0.10     0.18  -0.10   0.11     0.03  -0.02  -0.05
   8   6     0.12  -0.06  -0.08     0.13   0.02  -0.06     0.07  -0.11  -0.04
   9   6     0.10  -0.10   0.03    -0.13   0.15  -0.12     0.00   0.05  -0.00
  10   6    -0.02   0.03   0.09    -0.09   0.04   0.06    -0.03   0.05   0.05
  11   6    -0.04   0.14  -0.05     0.00  -0.21   0.00    -0.01  -0.12  -0.01
  12   6    -0.07  -0.00  -0.05     0.07  -0.05  -0.00     0.01  -0.05  -0.01
  13   6     0.03  -0.08  -0.03    -0.06   0.13   0.07    -0.05   0.07   0.05
  14   6    -0.01   0.01   0.06     0.04  -0.01  -0.06     0.04  -0.01  -0.03
  15   6    -0.00   0.01   0.02     0.02   0.00  -0.05     0.02   0.01  -0.04
  16   1     0.10   0.11   0.08     0.02   0.06   0.05     0.04  -0.08  -0.09
  17   1    -0.11   0.01  -0.13    -0.12  -0.01  -0.09     0.25   0.05   0.12
  18   1    -0.06   0.04  -0.07     0.01   0.06   0.03    -0.16  -0.17  -0.23
  19   1    -0.02   0.12   0.16     0.02   0.05   0.05    -0.07  -0.05  -0.00
  20   1    -0.07   0.04  -0.15    -0.09  -0.01  -0.07     0.15   0.04   0.13
  21   1     0.05   0.00   0.04     0.06  -0.01   0.15    -0.05   0.02  -0.27
  22   1    -0.09  -0.05  -0.07     0.01  -0.05  -0.05    -0.05   0.07   0.04
  23   1     0.16  -0.18   0.10     0.05  -0.06   0.04     0.13   0.01   0.11
  24   1    -0.23   0.05   0.07    -0.12   0.06   0.05     0.01  -0.00   0.03
  25   1    -0.00   0.08  -0.01     0.06   0.02  -0.19    -0.02   0.13   0.05
  26   1     0.04  -0.14  -0.01     0.09  -0.10   0.08     0.00   0.04   0.06
  27   1     0.12  -0.01  -0.19     0.01   0.12  -0.04     0.01   0.02  -0.03
  28   1     0.11   0.04   0.25     0.06  -0.10   0.09     0.02   0.01   0.04
  29   1     0.07  -0.05  -0.13    -0.04  -0.08   0.18    -0.00  -0.02   0.01
  30   1     0.03   0.15   0.07    -0.07  -0.00  -0.10    -0.02   0.03  -0.03
  31   1     0.04   0.16   0.08     0.03   0.14   0.05     0.02   0.07   0.05
  32   1    -0.14  -0.12   0.05    -0.07  -0.08   0.05    -0.06  -0.10   0.04
  33   1     0.01   0.03   0.14     0.04  -0.04  -0.23     0.09  -0.00  -0.07
  34   1    -0.05   0.07  -0.09    -0.12  -0.15   0.10    -0.07  -0.07   0.04
  35   1    -0.09  -0.05  -0.06     0.15   0.01  -0.06     0.08  -0.00  -0.05
  36   1     0.07  -0.03   0.08    -0.15  -0.09   0.06    -0.08  -0.07   0.06
  37   1     0.06  -0.09   0.11     0.00   0.13  -0.14     0.01   0.07  -0.07
  38   1     0.02  -0.03  -0.18    -0.07   0.02   0.21    -0.06   0.00   0.11
  39   1     0.04  -0.07   0.05     0.06   0.08  -0.05     0.05   0.04  -0.02
  40   1    -0.07   0.04   0.06     0.02  -0.02  -0.01    -0.01  -0.01   0.01
  41   1    -0.01   0.04   0.02     0.03  -0.02  -0.05     0.02  -0.01  -0.03
  42   1     0.03  -0.08   0.04    -0.08   0.09  -0.04    -0.06   0.04  -0.02
  43   1    -0.05   0.06  -0.04     0.02  -0.09   0.04     0.00  -0.06   0.03
  44   1     0.03  -0.07  -0.03     0.00   0.06   0.01     0.01   0.03  -0.00
  45   1     0.01  -0.07  -0.02    -0.02   0.07   0.03    -0.01   0.04   0.02
  46   1    -0.01   0.08  -0.05    -0.00  -0.11   0.06    -0.00  -0.07   0.04
  47   1     0.00  -0.04  -0.03    -0.01   0.08   0.03    -0.01   0.07   0.01
                     37                     38                     39
                        a                      a                      a 
 Frequencies --   907.7674               929.0820               933.9958
 Red. masses --     5.2519                 5.0496                 5.9892
 Frc consts  --     0.0000                 0.0000                 0.0000
 IR Inten    --     1.5282                 1.6520                 1.6740
 Raman Activ --     0.0000                 0.0000                 0.0000
 Depolar     --     0.0000                 0.0000                 0.0000
 Atom AN      X      Y      Z        X      Y      Z        X      Y      Z
   1   6     0.16   0.09  -0.01    -0.02  -0.09   0.04    -0.01   0.10  -0.02
   2   6     0.09   0.00  -0.18    -0.02   0.00   0.03    -0.00  -0.01  -0.00
   3   6    -0.11  -0.08   0.17    -0.05   0.09  -0.13     0.04  -0.11   0.06
   4   6    -0.15  -0.02  -0.01     0.04  -0.17   0.11    -0.04   0.17  -0.05
   5   6     0.14   0.06  -0.04     0.04  -0.01   0.13     0.02   0.02  -0.08
   6   6    -0.03   0.07   0.13     0.00   0.03  -0.20     0.01  -0.13   0.04
   7   6    -0.17   0.01  -0.15    -0.01  -0.03   0.17     0.04  -0.16   0.13
   8   6     0.11  -0.16  -0.11     0.07   0.12   0.02     0.10   0.18   0.01
   9   6     0.13   0.02   0.07    -0.01  -0.00  -0.18    -0.11   0.09  -0.19
  10   6    -0.00   0.05   0.14     0.02  -0.03   0.20    -0.02  -0.11   0.10
  11   6    -0.03  -0.07  -0.10    -0.03   0.06  -0.12    -0.01   0.06  -0.06
  12   6    -0.07  -0.07  -0.03    -0.16  -0.02  -0.12    -0.09   0.13  -0.04
  13   6    -0.04   0.05   0.10     0.09  -0.02   0.14     0.28  -0.08  -0.02
  14   6     0.04  -0.02  -0.03    -0.02  -0.00   0.01    -0.17   0.04   0.04
  15   6     0.01   0.02  -0.07    -0.06  -0.02  -0.09    -0.17  -0.13   0.06
  16   1    -0.13  -0.07  -0.05     0.14   0.12   0.10    -0.11  -0.12  -0.10
  17   1    -0.00  -0.02   0.08    -0.09   0.01  -0.12     0.13   0.00   0.13
  18   1     0.15   0.05   0.19    -0.07   0.04  -0.09     0.03  -0.06   0.04
  19   1    -0.08  -0.05  -0.07     0.18   0.06   0.02    -0.18  -0.05  -0.01
  20   1     0.06   0.00  -0.02    -0.12  -0.03  -0.00     0.15   0.05   0.01
  21   1    -0.01   0.03  -0.04    -0.08  -0.06   0.09     0.09   0.07  -0.11
  22   1    -0.05   0.04   0.11     0.11  -0.05  -0.13    -0.13   0.05   0.11
  23   1    -0.12  -0.04  -0.12    -0.05   0.12  -0.02     0.04  -0.06   0.03
  24   1     0.04   0.03   0.02     0.13  -0.12  -0.11    -0.11   0.09   0.07
  25   1    -0.06  -0.09   0.16    -0.01   0.04   0.06    -0.01  -0.02   0.01
  26   1    -0.10   0.02  -0.17    -0.03   0.09   0.01    -0.01  -0.04  -0.05
  27   1     0.03  -0.13   0.02    -0.00  -0.02  -0.04     0.02  -0.04  -0.00
  28   1    -0.04   0.20   0.05    -0.02   0.07  -0.06     0.01  -0.02   0.02
  29   1     0.06   0.02  -0.20     0.04  -0.06   0.01     0.03  -0.11   0.03
  30   1     0.05   0.15   0.11     0.03  -0.03   0.08     0.02  -0.04   0.05
  31   1     0.06   0.13   0.11     0.08  -0.01   0.07     0.06   0.02   0.04
  32   1    -0.12  -0.17   0.07    -0.04   0.08  -0.06     0.02   0.05   0.00
  33   1     0.10   0.02   0.02    -0.08   0.01  -0.00    -0.13  -0.03  -0.12
  34   1    -0.07  -0.03   0.02    -0.04   0.03  -0.08     0.00  -0.02  -0.01
  35   1     0.05  -0.01  -0.04     0.00  -0.01   0.04     0.02   0.01   0.11
  36   1    -0.06  -0.07   0.09     0.07   0.00   0.07    -0.02   0.04  -0.03
  37   1     0.04   0.06  -0.07     0.10   0.01   0.00    -0.03  -0.02  -0.00
  38   1    -0.05   0.00   0.05     0.04   0.01  -0.06     0.13   0.04  -0.03
  39   1     0.08   0.03  -0.02     0.13  -0.00   0.01    -0.00   0.01   0.01
  40   1    -0.08  -0.02   0.06    -0.17   0.01   0.13    -0.07  -0.00   0.04
  41   1     0.07  -0.02  -0.06     0.16  -0.03  -0.10     0.11  -0.02  -0.05
  42   1    -0.11   0.03  -0.02    -0.16  -0.02  -0.02     0.05  -0.00  -0.03
  43   1    -0.02  -0.10   0.04    -0.08  -0.13   0.06    -0.02   0.05  -0.01
  44   1     0.04   0.08  -0.02     0.09   0.16  -0.07     0.02   0.11  -0.04
  45   1    -0.02   0.10   0.02     0.01   0.23   0.00     0.08   0.15  -0.06
  46   1     0.01  -0.12   0.07     0.05  -0.14   0.09     0.09   0.08  -0.02
  47   1    -0.00   0.08   0.03     0.04  -0.03   0.09     0.10  -0.34   0.08
                     40                     41                     42
                        a                      a                      a 
 Frequencies --   943.5703               946.9084               979.7095
 Red. masses --     5.3514                 5.8229                 6.1407
 Frc consts  --     0.0000                 0.0000                 0.0000
 IR Inten    --     1.1701                 4.1890                 1.7523
 Raman Activ --     0.0000                 0.0000                 0.0000
 Depolar     --     0.0000                 0.0000                 0.0000
 Atom AN      X      Y      Z        X      Y      Z        X      Y      Z
   1   6     0.05  -0.02   0.03     0.01   0.07  -0.01    -0.25  -0.06   0.04
   2   6     0.01   0.00  -0.05     0.00  -0.02  -0.01    -0.01   0.03   0.12
   3   6    -0.11  -0.00  -0.07     0.00  -0.06   0.03     0.29   0.08   0.02
   4   6    -0.00  -0.13   0.09    -0.02   0.12  -0.03    -0.23   0.11   0.09
   5   6     0.13   0.08   0.10     0.05  -0.01  -0.00    -0.01  -0.17  -0.28
   6   6    -0.06   0.03  -0.08     0.00  -0.14  -0.08     0.12  -0.06   0.10
   7   6    -0.01  -0.12   0.16     0.04  -0.11   0.19    -0.14  -0.04  -0.02
   8   6     0.26   0.10  -0.05     0.08   0.26   0.06     0.04   0.01  -0.08
   9   6    -0.11   0.06  -0.18    -0.10  -0.06  -0.20     0.06   0.06   0.01
  10   6    -0.20  -0.05   0.01    -0.07  -0.04   0.04     0.02  -0.05   0.10
  11   6    -0.02  -0.06   0.06    -0.02   0.10   0.02     0.01   0.05  -0.12
  12   6     0.20   0.06   0.10     0.09  -0.10  -0.02    -0.07   0.03   0.05
  13   6    -0.00   0.03  -0.14    -0.26   0.02   0.09    -0.04  -0.08   0.02
  14   6    -0.04   0.02  -0.02     0.16  -0.05  -0.03     0.02  -0.04  -0.02
  15   6     0.01  -0.03   0.11     0.18   0.14  -0.10     0.04   0.07   0.01
  16   1     0.05   0.05   0.05    -0.08  -0.07  -0.06     0.14   0.02   0.00
  17   1    -0.04   0.00  -0.04     0.08   0.00   0.08     0.13   0.05  -0.01
  18   1     0.00   0.03   0.00     0.03  -0.03   0.04    -0.21  -0.12  -0.27
  19   1     0.09   0.02  -0.01    -0.12  -0.03  -0.00     0.09   0.03   0.04
  20   1    -0.05  -0.02  -0.01     0.10   0.03  -0.01     0.07   0.02   0.05
  21   1    -0.07  -0.03   0.01     0.07   0.04  -0.06     0.19   0.05   0.02
  22   1     0.04  -0.02  -0.05    -0.11   0.02   0.06     0.19   0.05   0.02
  23   1    -0.07   0.05  -0.07     0.02  -0.04   0.02    -0.08   0.15   0.01
  24   1     0.11  -0.07  -0.06    -0.08   0.04   0.02     0.07   0.06   0.02
  25   1    -0.05   0.04   0.15    -0.02  -0.01   0.04     0.05  -0.26  -0.08
  26   1    -0.07   0.08  -0.09    -0.02  -0.02  -0.04    -0.02   0.10  -0.06
  27   1     0.04  -0.08  -0.08     0.02  -0.06  -0.04    -0.01  -0.09   0.11
  28   1    -0.01   0.19   0.04     0.02  -0.02   0.01    -0.07   0.12  -0.06
  29   1     0.09  -0.18  -0.04     0.05  -0.14   0.03     0.03   0.06  -0.12
  30   1     0.02   0.09   0.11     0.03  -0.04   0.07     0.05   0.04   0.10
  31   1     0.11   0.15   0.12     0.05  -0.02   0.01     0.06   0.04   0.06
  32   1    -0.09  -0.04   0.03     0.03   0.14  -0.06    -0.03  -0.05   0.03
  33   1    -0.06  -0.01  -0.10    -0.19  -0.01   0.03    -0.02  -0.01  -0.03
  34   1    -0.11  -0.04  -0.02     0.03   0.08  -0.12     0.01  -0.01   0.02
  35   1    -0.02  -0.01  -0.00    -0.15  -0.04   0.00    -0.01  -0.00   0.05
  36   1    -0.14  -0.04  -0.01     0.13   0.04   0.02    -0.04   0.00  -0.00
  37   1    -0.08  -0.01  -0.01     0.10  -0.04   0.09    -0.02   0.00  -0.03
  38   1    -0.02  -0.00   0.05    -0.06  -0.03  -0.11     0.05   0.02  -0.03
  39   1    -0.10   0.06  -0.04     0.04  -0.03  -0.00    -0.04   0.04  -0.01
  40   1     0.15  -0.06  -0.11     0.01  -0.01   0.01    -0.03  -0.06   0.02
  41   1    -0.13  -0.03   0.09    -0.08  -0.04   0.03    -0.05  -0.08   0.04
  42   1     0.17   0.07  -0.02    -0.11  -0.05   0.04     0.02   0.02  -0.01
  43   1     0.10   0.15  -0.06    -0.02  -0.11   0.04     0.05   0.02  -0.01
  44   1    -0.11  -0.13   0.08     0.01  -0.08   0.02    -0.04  -0.05   0.04
  45   1     0.01  -0.19  -0.02    -0.08  -0.10   0.07    -0.01  -0.06   0.01
  46   1    -0.03   0.16  -0.10    -0.09  -0.14   0.06    -0.02   0.03  -0.02
  47   1    -0.01  -0.07  -0.06    -0.10   0.38  -0.06    -0.02   0.07  -0.04
                     43                     44                     45
                        a                      a                      a 
 Frequencies --   997.9033              1012.1903              1037.6043
 Red. masses --     7.1874                 4.6556                 5.4706
 Frc consts  --     0.0000                 0.0000                 0.0000
 IR Inten    --     1.8921                 0.2844                 0.1330
 Raman Activ --     0.0000                 0.0000                 0.0000
 Depolar     --     0.0000                 0.0000                 0.0000
 Atom AN      X      Y      Z        X      Y      Z        X      Y      Z
   1   6     0.09   0.00  -0.02     0.00  -0.03   0.04    -0.06   0.05  -0.05
   2   6    -0.01   0.00  -0.03    -0.01   0.03  -0.04     0.04  -0.08   0.07
   3   6    -0.10  -0.03  -0.03    -0.04  -0.04  -0.03     0.08   0.12   0.05
   4   6     0.11  -0.05  -0.03    -0.02  -0.03   0.04    -0.05  -0.00  -0.00
   5   6    -0.05   0.09   0.07     0.03   0.11  -0.08     0.08  -0.21   0.13
   6   6    -0.00   0.04   0.02    -0.05   0.03   0.19    -0.05   0.01  -0.33
   7   6     0.04  -0.04  -0.00     0.07  -0.14  -0.07     0.01   0.15   0.18
   8   6    -0.04  -0.05  -0.04     0.06  -0.03  -0.03    -0.01  -0.03  -0.07
   9   6    -0.00   0.15  -0.03    -0.18   0.09   0.04    -0.00  -0.06   0.13
  10   6     0.16  -0.09   0.17    -0.03  -0.10  -0.24     0.02   0.07  -0.12
  11   6     0.14   0.14  -0.30     0.10   0.14   0.15     0.14  -0.00   0.00
  12   6    -0.28   0.13   0.12     0.03   0.12  -0.04    -0.07   0.10   0.05
  13   6    -0.05  -0.30   0.10    -0.02  -0.16   0.01    -0.01  -0.15   0.00
  14   6     0.04  -0.14  -0.04     0.03  -0.01   0.10     0.03  -0.07   0.05
  15   6     0.08   0.20  -0.01     0.03   0.04  -0.11    -0.01   0.08  -0.05
  16   1    -0.04   0.01   0.01     0.07   0.04   0.04    -0.08  -0.07  -0.07
  17   1    -0.06  -0.02  -0.01    -0.01   0.01  -0.03     0.06   0.00   0.07
  18   1     0.07   0.05   0.09    -0.03   0.00  -0.04     0.00  -0.05   0.00
  19   1    -0.01  -0.01  -0.02     0.10   0.01  -0.03    -0.15   0.00   0.07
  20   1    -0.05  -0.02  -0.01    -0.03  -0.02   0.02     0.12   0.05  -0.05
  21   1    -0.10  -0.03  -0.01    -0.06  -0.01  -0.03     0.20   0.04   0.10
  22   1    -0.04  -0.01  -0.01     0.10   0.03   0.02    -0.17  -0.08  -0.06
  23   1     0.04  -0.04   0.01    -0.05  -0.00  -0.06     0.01   0.05   0.05
  24   1    -0.01  -0.01   0.01     0.09   0.05   0.06    -0.10  -0.17  -0.18
  25   1    -0.00   0.11  -0.02    -0.02   0.02   0.02     0.00  -0.05   0.06
  26   1     0.02  -0.02   0.05    -0.02   0.02  -0.06    -0.01   0.00   0.01
  27   1    -0.02   0.08   0.01     0.02  -0.01   0.02     0.02  -0.02  -0.12
  28   1     0.01  -0.07   0.00    -0.00   0.09   0.09    -0.02   0.09  -0.06
  29   1    -0.03   0.05   0.04     0.01  -0.10   0.01     0.01  -0.05   0.07
  30   1     0.00  -0.08  -0.03    -0.03   0.08  -0.04    -0.04   0.10   0.02
  31   1     0.02  -0.02   0.03    -0.07   0.10  -0.07    -0.03   0.07  -0.01
  32   1    -0.00  -0.04   0.02     0.09  -0.12   0.14    -0.17   0.05  -0.12
  33   1    -0.01  -0.02  -0.13    -0.07  -0.04  -0.12     0.17   0.04   0.07
  34   1    -0.02  -0.07   0.08     0.05  -0.06   0.10    -0.20  -0.04  -0.00
  35   1     0.08   0.02   0.13     0.01   0.03   0.06     0.13   0.03  -0.05
  36   1    -0.08   0.02  -0.03    -0.09   0.06  -0.16    -0.19  -0.05  -0.03
  37   1    -0.05   0.02  -0.09    -0.16  -0.10   0.08    -0.13  -0.00  -0.05
  38   1     0.25   0.09  -0.06     0.21   0.04  -0.05     0.14   0.04   0.05
  39   1    -0.11   0.09  -0.01    -0.11  -0.19   0.11    -0.12  -0.07   0.05
  40   1    -0.13  -0.13   0.06     0.10   0.19  -0.09     0.06   0.10  -0.06
  41   1    -0.09  -0.21   0.08     0.06   0.10  -0.03     0.02   0.05  -0.01
  42   1     0.04   0.02  -0.02    -0.10  -0.26   0.12    -0.01  -0.11   0.05
  43   1     0.11   0.02  -0.02    -0.15  -0.12   0.05    -0.04  -0.04   0.01
  44   1    -0.08  -0.11   0.07     0.12   0.05  -0.08     0.05   0.00  -0.03
  45   1    -0.02  -0.10   0.01    -0.02   0.10   0.02    -0.00   0.06  -0.00
  46   1    -0.05   0.08  -0.05    -0.00  -0.14   0.07     0.01  -0.01   0.01
  47   1    -0.05   0.16  -0.07    -0.01   0.12   0.03    -0.00   0.04   0.01
                     46                     47                     48
                        a                      a                      a 
 Frequencies --  1043.8892              1065.5287              1072.4561
 Red. masses --     6.2386                 5.9782                 4.9537
 Frc consts  --     0.0000                 0.0000                 0.0000
 IR Inten    --     0.9901                 0.2460                 1.3388
 Raman Activ --     0.0000                 0.0000                 0.0000
 Depolar     --     0.0000                 0.0000                 0.0000
 Atom AN      X      Y      Z        X      Y      Z        X      Y      Z
   1   6    -0.01   0.02   0.12    -0.09  -0.01  -0.11     0.09  -0.05  -0.18
   2   6    -0.01  -0.02  -0.14     0.10  -0.01   0.12    -0.06   0.09   0.23
   3   6    -0.09  -0.04  -0.02     0.11   0.10   0.08     0.09  -0.07  -0.14
   4   6    -0.07   0.04   0.11    -0.05  -0.11  -0.08     0.09   0.03  -0.00
   5   6     0.15   0.08  -0.10     0.02  -0.11   0.16    -0.12   0.03  -0.09
   6   6    -0.11  -0.20   0.02    -0.12   0.39   0.04     0.12  -0.13   0.03
   7   6     0.16  -0.04   0.14     0.10  -0.16  -0.17    -0.05  -0.11   0.13
   8   6    -0.12   0.08  -0.05     0.03  -0.06   0.07     0.01   0.09  -0.13
   9   6    -0.15  -0.13   0.18    -0.21   0.02  -0.04    -0.09  -0.06   0.16
  10   6     0.28   0.17  -0.12     0.12  -0.00  -0.05     0.18   0.08  -0.09
  11   6     0.08  -0.04  -0.09    -0.01   0.02  -0.01     0.03   0.00  -0.05
  12   6    -0.16  -0.06   0.05    -0.04  -0.05  -0.03    -0.04  -0.07   0.05
  13   6    -0.02   0.01   0.03    -0.00   0.04   0.03    -0.02   0.05  -0.02
  14   6     0.03  -0.07  -0.03    -0.00  -0.01  -0.03     0.01  -0.00   0.00
  15   6    -0.04   0.06   0.02    -0.01   0.01   0.02    -0.02  -0.00   0.00
  16   1     0.11   0.04   0.03    -0.08  -0.05  -0.06    -0.16  -0.02  -0.01
  17   1     0.09   0.04   0.01    -0.01  -0.02   0.01    -0.20  -0.07  -0.06
  18   1    -0.07  -0.04  -0.10    -0.00  -0.03   0.00     0.13   0.10   0.19
  19   1     0.10   0.01  -0.04    -0.07   0.01   0.06    -0.09  -0.03   0.03
  20   1     0.05   0.01  -0.02     0.08   0.03  -0.01    -0.18  -0.04   0.08
  21   1     0.04   0.02  -0.03     0.10   0.01   0.09    -0.19  -0.04  -0.10
  22   1     0.07   0.03   0.02    -0.08  -0.05  -0.04    -0.03   0.01   0.00
  23   1    -0.12  -0.05  -0.13     0.01   0.02   0.02     0.16   0.20   0.24
  24   1     0.09   0.08   0.08    -0.08  -0.17  -0.17    -0.00   0.02   0.02
  25   1    -0.07   0.10   0.10     0.01  -0.11   0.05     0.07  -0.16  -0.11
  26   1    -0.04  -0.06  -0.14    -0.00   0.01   0.04    -0.02   0.29   0.06
  27   1     0.06  -0.07  -0.10    -0.01   0.10  -0.01     0.01  -0.17   0.07
  28   1     0.05   0.01   0.12    -0.05   0.28   0.04    -0.06   0.14  -0.05
  29   1     0.00  -0.18   0.15     0.03  -0.18  -0.00     0.04  -0.09  -0.02
  30   1    -0.09   0.13  -0.06    -0.03   0.03  -0.09    -0.00   0.11   0.09
  31   1    -0.21   0.12  -0.21    -0.11   0.04  -0.11    -0.07   0.14  -0.07
  32   1    -0.03   0.05  -0.04     0.19  -0.12   0.19    -0.06  -0.01  -0.01
  33   1    -0.02  -0.01   0.10    -0.16  -0.05  -0.09    -0.09  -0.02   0.06
  34   1    -0.05   0.00   0.01     0.11  -0.01   0.05    -0.05  -0.01   0.03
  35   1     0.10   0.02  -0.08    -0.02   0.00   0.01     0.04   0.01  -0.04
  36   1     0.15   0.02   0.01     0.21   0.07  -0.02     0.06   0.02  -0.02
  37   1     0.09   0.06  -0.06     0.12   0.02   0.02    -0.01   0.01  -0.02
  38   1    -0.07  -0.01   0.02    -0.06  -0.02  -0.03    -0.06  -0.01  -0.02
  39   1     0.02   0.07  -0.03     0.08   0.06  -0.03    -0.03  -0.03   0.02
  40   1    -0.08  -0.05   0.05    -0.07  -0.06   0.06     0.00  -0.02  -0.00
  41   1     0.01  -0.01  -0.01    -0.01  -0.05   0.00     0.01   0.06  -0.01
  42   1     0.03   0.11  -0.05     0.01   0.08  -0.04     0.01   0.02  -0.01
  43   1     0.07   0.03  -0.02     0.05   0.02  -0.01    -0.00   0.01  -0.00
  44   1    -0.02  -0.01   0.02    -0.03  -0.01   0.02     0.01   0.00  -0.01
  45   1     0.02   0.01  -0.02     0.01  -0.02  -0.01     0.01   0.02  -0.01
  46   1     0.01   0.08  -0.03     0.00   0.03  -0.02     0.01   0.01  -0.00
  47   1     0.01  -0.05  -0.01     0.00  -0.02  -0.01     0.01  -0.02   0.01
                     49                     50                     51
                        a                      a                      a 
 Frequencies --  1082.9158              1092.2650              1107.4730
 Red. masses --     8.2196                 8.4838                 7.1533
 Frc consts  --     0.0000                 0.0000                 0.0000
 IR Inten    --     1.1403                 0.0384                 0.0862
 Raman Activ --     0.0000                 0.0000                 0.0000
 Depolar     --     0.0000                 0.0000                 0.0000
 Atom AN      X      Y      Z        X      Y      Z        X      Y      Z
   1   6     0.03   0.05   0.07    -0.29  -0.17  -0.34     0.05  -0.01   0.02
   2   6    -0.06  -0.07  -0.06     0.47   0.22   0.25    -0.09   0.02   0.02
   3   6    -0.03   0.04  -0.03    -0.03  -0.06   0.15     0.07  -0.04  -0.03
   4   6     0.02  -0.00   0.06    -0.09  -0.06  -0.14    -0.02   0.04  -0.02
   5   6     0.02  -0.04  -0.01     0.01   0.16   0.06     0.02  -0.03  -0.01
   6   6    -0.01  -0.01  -0.05    -0.02  -0.08   0.00    -0.03  -0.00  -0.00
   7   6     0.02  -0.03   0.08     0.02   0.02   0.03     0.05   0.08  -0.06
   8   6    -0.05  -0.03  -0.12    -0.02   0.02   0.01    -0.01  -0.02   0.14
   9   6    -0.00   0.08   0.11     0.01  -0.02   0.00    -0.01  -0.06  -0.10
  10   6     0.24  -0.05   0.10     0.03   0.02   0.02    -0.18   0.04  -0.09
  11   6    -0.14   0.09  -0.15    -0.00   0.00  -0.04     0.11  -0.06   0.13
  12   6     0.05  -0.13   0.03    -0.01  -0.00   0.01    -0.16   0.17  -0.08
  13   6     0.06   0.17  -0.08     0.01   0.01  -0.01    -0.09  -0.26   0.17
  14   6    -0.15   0.45  -0.07    -0.03   0.11  -0.02     0.08   0.35  -0.17
  15   6     0.18  -0.36   0.04     0.05  -0.09   0.01     0.11  -0.27   0.07
  16   1     0.02  -0.00   0.00    -0.12  -0.05  -0.09     0.00   0.02   0.02
  17   1     0.06   0.02   0.04    -0.14  -0.06  -0.11    -0.03  -0.01  -0.01
  18   1    -0.00  -0.01  -0.01    -0.06  -0.03  -0.06     0.02   0.03   0.03
  19   1    -0.05  -0.01  -0.00     0.25   0.07   0.06    -0.03  -0.02  -0.02
  20   1     0.01   0.00  -0.04     0.18   0.06   0.09    -0.08  -0.03   0.03
  21   1     0.08   0.01   0.04    -0.15  -0.02  -0.02    -0.03   0.00  -0.05
  22   1    -0.05  -0.03  -0.04     0.00   0.04   0.09     0.06   0.03   0.03
  23   1    -0.01   0.02   0.00    -0.07  -0.14  -0.13     0.02   0.03   0.04
  24   1     0.01  -0.05  -0.04    -0.02   0.04   0.03    -0.00   0.04   0.03
  25   1    -0.01   0.06   0.01    -0.03   0.05   0.06     0.02  -0.12   0.00
  26   1     0.00  -0.02  -0.01    -0.02   0.00  -0.02    -0.01   0.03  -0.01
  27   1    -0.01   0.05  -0.02     0.02  -0.05  -0.02     0.03  -0.09  -0.03
  28   1    -0.00   0.01  -0.00     0.03  -0.10   0.02    -0.00   0.05   0.02
  29   1    -0.02   0.05   0.04     0.00  -0.03   0.03     0.02  -0.13   0.02
  30   1    -0.01  -0.00   0.01    -0.00  -0.01  -0.01    -0.04   0.10  -0.05
  31   1    -0.03   0.05  -0.02     0.00  -0.02   0.00    -0.06  -0.04  -0.06
  32   1    -0.04  -0.05   0.01    -0.04   0.05  -0.06     0.04   0.05  -0.01
  33   1    -0.04  -0.03  -0.05     0.04   0.01   0.03     0.16   0.05   0.04
  34   1    -0.02  -0.05   0.08    -0.06  -0.01  -0.02     0.00   0.03  -0.06
  35   1     0.09   0.02   0.10     0.04   0.01   0.00     0.00  -0.00  -0.06
  36   1     0.02   0.03  -0.02    -0.04  -0.01   0.01    -0.02  -0.02   0.01
  37   1    -0.18  -0.08  -0.01    -0.05  -0.01  -0.02     0.13   0.06   0.01
  38   1     0.02   0.01  -0.10     0.03   0.01  -0.00     0.14   0.04   0.10
  39   1    -0.08  -0.14   0.06    -0.03  -0.03   0.01     0.09   0.15  -0.05
  40   1    -0.04  -0.14   0.04    -0.01  -0.02   0.00    -0.07   0.08   0.03
  41   1    -0.04  -0.01   0.02    -0.01  -0.01   0.01    -0.08  -0.22   0.07
  42   1    -0.04  -0.06   0.03    -0.01  -0.03   0.01    -0.09  -0.07   0.02
  43   1    -0.08   0.07   0.00    -0.02   0.02  -0.00     0.13   0.19  -0.07
  44   1    -0.07   0.07   0.00    -0.01   0.03  -0.00     0.04   0.17  -0.05
  45   1    -0.05  -0.21   0.08    -0.01  -0.05   0.02    -0.01  -0.16   0.04
  46   1    -0.06  -0.23   0.07    -0.01  -0.06   0.02    -0.01  -0.10   0.02
  47   1    -0.04   0.10  -0.01    -0.01   0.03  -0.00    -0.01  -0.01  -0.01
                     52                     53                     54
                        a                      a                      a 
 Frequencies --  1114.8180              1117.8722              1128.9744
 Red. masses --     5.9057                 7.0587                 7.3759
 Frc consts  --     0.0000                 0.0000                 0.0000
 IR Inten    --     0.1410                 0.9998                 0.2311
 Raman Activ --     0.0000                 0.0000                 0.0000
 Depolar     --     0.0000                 0.0000                 0.0000
 Atom AN      X      Y      Z        X      Y      Z        X      Y      Z
   1   6    -0.05   0.03  -0.11    -0.03   0.01   0.01    -0.01  -0.00   0.02
   2   6     0.13  -0.05   0.08     0.05  -0.03  -0.04     0.01  -0.00  -0.04
   3   6    -0.16   0.11  -0.10    -0.06   0.04   0.03    -0.01  -0.00   0.03
   4   6     0.07  -0.06   0.22     0.03  -0.03   0.01     0.01  -0.00  -0.03
   5   6     0.03   0.04  -0.20    -0.04   0.02   0.01    -0.03   0.00   0.04
   6   6     0.04  -0.27   0.02     0.05   0.04   0.03     0.03   0.06   0.00
   7   6     0.00   0.06   0.14    -0.06  -0.12   0.03    -0.05  -0.09   0.02
   8   6    -0.06  -0.10  -0.13     0.04   0.06  -0.12     0.02   0.06  -0.08
   9   6     0.11   0.15   0.03     0.00   0.02   0.06    -0.03  -0.03   0.13
  10   6    -0.12  -0.10  -0.02    -0.01   0.02  -0.07     0.26   0.08   0.09
  11   6    -0.09  -0.00   0.14     0.28   0.06  -0.10    -0.38  -0.10  -0.02
  12   6     0.04   0.08  -0.13    -0.14  -0.17   0.22     0.20   0.31  -0.16
  13   6    -0.00  -0.07   0.07    -0.36   0.02   0.05    -0.13  -0.27   0.07
  14   6     0.03  -0.02  -0.03     0.32   0.13  -0.09     0.16  -0.01  -0.03
  15   6    -0.01   0.01   0.01    -0.11  -0.14   0.05    -0.03  -0.01   0.00
  16   1    -0.09  -0.06  -0.07     0.01  -0.01  -0.01     0.02   0.01   0.01
  17   1     0.01  -0.01   0.03     0.04   0.01   0.01     0.01   0.01   0.00
  18   1     0.02  -0.02   0.02    -0.02  -0.02  -0.03    -0.01  -0.01  -0.02
  19   1    -0.02   0.04   0.07     0.02   0.01   0.01     0.02  -0.00  -0.01
  20   1     0.12   0.05  -0.05     0.06   0.02  -0.03     0.01   0.00  -0.01
  21   1     0.06  -0.01   0.09     0.03  -0.00   0.05    -0.01  -0.00   0.01
[...]
  14   6    -0.01   0.01   0.01     0.05  -0.06  -0.08    -0.02   0.00  -0.02
  15   6     0.00  -0.00  -0.00    -0.00   0.00   0.02     0.01   0.00   0.00
  16   1     0.00  -0.01   0.01    -0.00   0.00  -0.00    -0.01   0.04  -0.05
  17   1    -0.00   0.01   0.00    -0.00   0.01   0.00    -0.00   0.00   0.00
  18   1    -0.01  -0.00   0.01    -0.01  -0.00   0.00     0.02   0.00  -0.01
  19   1    -0.02   0.07  -0.07    -0.00   0.01  -0.01     0.02  -0.09   0.10
  20   1     0.04  -0.11  -0.04     0.01  -0.02  -0.01     0.02  -0.06  -0.03
  21   1     0.02  -0.06  -0.03     0.01  -0.04  -0.02    -0.05   0.18   0.07
  22   1    -0.01   0.09  -0.08    -0.01   0.04  -0.04     0.07  -0.40   0.38
  23   1    -0.09  -0.02   0.06     0.01   0.00  -0.01    -0.01  -0.00   0.01
  24   1     0.01  -0.03   0.02     0.01  -0.03   0.03     0.01  -0.05   0.04
  25   1     0.21   0.04   0.11     0.08   0.02   0.05    -0.11  -0.02  -0.06
  26   1    -0.45  -0.09   0.34    -0.12  -0.02   0.09     0.23   0.05  -0.17
  27   1     0.01   0.00   0.00     0.00   0.00   0.00    -0.05  -0.01  -0.03
  28   1    -0.05  -0.01   0.03     0.01   0.00  -0.01     0.11   0.03  -0.08
  29   1    -0.28  -0.06  -0.15    -0.01  -0.00  -0.00    -0.12  -0.03  -0.06
  30   1     0.42   0.12  -0.34     0.09   0.03  -0.07     0.23   0.07  -0.19
  31   1     0.00   0.00   0.00     0.11   0.03  -0.08    -0.00  -0.00   0.00
  32   1     0.03  -0.09  -0.09    -0.01   0.04   0.04    -0.01   0.03   0.02
  33   1     0.02  -0.11   0.04    -0.03   0.16  -0.06     0.03  -0.16   0.05
  34   1    -0.03   0.09   0.10     0.04  -0.13  -0.14    -0.10   0.28   0.31
  35   1     0.01  -0.04   0.01    -0.01   0.04  -0.02    -0.01   0.05  -0.03
  36   1    -0.00   0.01   0.01    -0.03   0.09   0.11    -0.03   0.10   0.12
  37   1    -0.01   0.03   0.03    -0.04   0.09   0.11    -0.04   0.10   0.12
  38   1     0.02  -0.07   0.03    -0.01   0.06  -0.03     0.02  -0.07   0.02
  39   1     0.01  -0.04  -0.06    -0.09   0.26   0.40    -0.02   0.04   0.06
  40   1     0.03  -0.00   0.03    -0.06   0.00  -0.07     0.06  -0.01   0.05
  41   1    -0.08   0.01  -0.08     0.36  -0.06   0.36     0.14  -0.02   0.14
  42   1     0.00   0.01   0.01    -0.05   0.08   0.11    -0.01   0.00  -0.00
  43   1     0.02  -0.04  -0.07    -0.11   0.23   0.36    -0.00  -0.00  -0.01
  44   1     0.03  -0.00   0.03    -0.07   0.00  -0.09     0.06  -0.01   0.06
  45   1     0.00  -0.00   0.00    -0.02   0.00  -0.02    -0.02   0.00  -0.02
  46   1    -0.00   0.00   0.01     0.02  -0.04  -0.05     0.00  -0.00  -0.00
  47   1    -0.00  -0.00   0.00     0.02   0.01  -0.01    -0.01  -0.00   0.00
                    124                    125                    126
                        a                      a                      a 
 Frequencies --  2986.6712              2987.9369              2989.4883
 Red. masses --     1.6730                 1.5965                 1.6400
 Frc consts  --     0.0000                 0.0000                 0.0000
 IR Inten    --    33.3175                66.1474               159.2479
 Raman Activ --     0.0000                 0.0000                 0.0000
 Depolar     --     0.0000                 0.0000                 0.0000
 Atom AN      X      Y      Z        X      Y      Z        X      Y      Z
   1   6     0.00  -0.02   0.01     0.01  -0.00  -0.00     0.01  -0.02  -0.01
   2   6    -0.03   0.09   0.02    -0.02   0.06   0.05    -0.02   0.06   0.05
   3   6    -0.01   0.08  -0.13    -0.00   0.01  -0.00    -0.01   0.02   0.01
   4   6     0.01   0.03  -0.04     0.01   0.01  -0.02     0.00   0.01  -0.01
   5   6     0.02   0.01  -0.05     0.03   0.01  -0.05     0.02   0.00  -0.04
   6   6     0.02   0.01  -0.00     0.05   0.01  -0.02     0.05   0.01  -0.01
   7   6     0.01   0.00  -0.01     0.04   0.01  -0.07     0.04   0.01  -0.08
   8   6    -0.01   0.01   0.02     0.02  -0.00  -0.02     0.03  -0.02  -0.05
   9   6    -0.02   0.03   0.10     0.00  -0.01  -0.02     0.02  -0.04  -0.10
  10   6    -0.01   0.05   0.02     0.01  -0.03   0.02     0.02  -0.05  -0.04
  11   6    -0.00   0.01   0.03    -0.01   0.02  -0.00     0.01  -0.03  -0.03
  12   6     0.01   0.00   0.02    -0.05   0.03  -0.00     0.04  -0.03  -0.02
  13   6     0.03  -0.01   0.03    -0.12   0.06  -0.04     0.08  -0.05   0.01
  14   6     0.02  -0.01   0.01    -0.06   0.03  -0.01     0.04  -0.03  -0.00
  15   6    -0.01  -0.00  -0.00     0.03  -0.00  -0.00    -0.02   0.00   0.01
  16   1    -0.01   0.04  -0.05     0.00  -0.00   0.00    -0.00   0.01  -0.01
  17   1    -0.01   0.04   0.02    -0.01   0.03   0.01    -0.02   0.06   0.02
  18   1     0.00  -0.00   0.00    -0.01  -0.00   0.01    -0.02  -0.01   0.01
  19   1     0.01  -0.03   0.05    -0.02   0.08  -0.07    -0.01   0.06  -0.05
  20   1     0.10  -0.29  -0.13     0.10  -0.29  -0.12     0.10  -0.29  -0.12
  21   1    -0.04   0.16   0.06     0.01  -0.02  -0.01     0.01  -0.05  -0.03
  22   1     0.07  -0.44   0.41     0.00  -0.02   0.02     0.00  -0.01   0.01
  23   1    -0.07  -0.01   0.05    -0.05  -0.01   0.03    -0.01  -0.00   0.01
  24   1     0.02  -0.11   0.09     0.01  -0.02   0.02     0.01  -0.04   0.03
  25   1     0.09   0.02   0.05     0.08   0.01   0.04     0.07   0.01   0.04
  26   1    -0.15  -0.03   0.11    -0.19  -0.04   0.14    -0.14  -0.03   0.10
  27   1    -0.04  -0.01  -0.03    -0.05  -0.01  -0.05    -0.09  -0.02  -0.07
  28   1    -0.04  -0.01   0.03    -0.12  -0.03   0.09    -0.09  -0.02   0.07
  29   1     0.01   0.00   0.01     0.10   0.02   0.05     0.13   0.03   0.07
  30   1    -0.04  -0.01   0.03    -0.24  -0.07   0.20    -0.28  -0.08   0.22
  31   1     0.04   0.02  -0.03    -0.07  -0.03   0.05    -0.10  -0.04   0.06
  32   1     0.01  -0.05  -0.04    -0.01   0.03   0.03    -0.02   0.11   0.09
  33   1    -0.04   0.17  -0.06     0.01  -0.04   0.01     0.03  -0.13   0.04
  34   1     0.10  -0.29  -0.32    -0.02   0.06   0.07    -0.09   0.27   0.30
  35   1     0.02  -0.08   0.04    -0.03   0.15  -0.06    -0.00   0.03  -0.02
  36   1     0.03  -0.08  -0.10     0.01  -0.03  -0.03    -0.05   0.13   0.16
  37   1     0.03  -0.09  -0.10     0.01  -0.01  -0.02    -0.04   0.10   0.13
  38   1    -0.02   0.07  -0.02     0.01  -0.05   0.02     0.00   0.00  -0.01
  39   1     0.01  -0.02  -0.03     0.02  -0.08  -0.13    -0.03   0.11   0.17
  40   1    -0.06   0.01  -0.05     0.15  -0.02   0.13    -0.09   0.01  -0.08
  41   1    -0.13   0.02  -0.13     0.37  -0.05   0.39    -0.24   0.03  -0.25
  42   1     0.00   0.01   0.02     0.06  -0.15  -0.24    -0.05   0.13   0.21
  43   1    -0.00   0.01   0.02     0.04  -0.10  -0.16    -0.03   0.08   0.13
  44   1    -0.06   0.01  -0.06     0.18  -0.02   0.19    -0.11   0.01  -0.11
  45   1     0.02  -0.00   0.02    -0.05   0.01  -0.05     0.03  -0.00   0.03
  46   1    -0.00   0.00   0.00    -0.01   0.02   0.03     0.01  -0.02  -0.04
  47   1     0.01   0.00  -0.01    -0.04  -0.02   0.02     0.03   0.01  -0.01
                    127                    128                    129
                        a                      a                      a 
 Frequencies --  2993.7715              3013.0534              3018.5183
 Red. masses --     1.6153                 1.6746                 1.6837
 Frc consts  --     0.0000                 0.0000                 0.0000
 IR Inten    --   150.2585                79.8083                54.9474
 Raman Activ --     0.0000                 0.0000                 0.0000
 Depolar     --     0.0000                 0.0000                 0.0000
 Atom AN      X      Y      Z        X      Y      Z        X      Y      Z
   1   6    -0.03   0.02   0.03     0.00  -0.01  -0.00     0.00   0.02  -0.01
   2   6     0.05  -0.11  -0.12    -0.00   0.01   0.00     0.00  -0.00  -0.00
   3   6     0.01  -0.00  -0.06    -0.00   0.00   0.00     0.00  -0.02   0.02
   4   6     0.03   0.02  -0.04    -0.00  -0.00   0.00     0.00  -0.01   0.01
   5   6     0.06   0.01  -0.08    -0.00  -0.00   0.01     0.02   0.00   0.02
   6   6     0.05   0.01  -0.01     0.00   0.00   0.01     0.18   0.04   0.16
   7   6     0.03   0.01  -0.04    -0.02  -0.01   0.02     0.02   0.01   0.02
   8   6     0.02  -0.00  -0.02    -0.01  -0.00   0.01    -0.00   0.01   0.01
   9   6     0.00  -0.01  -0.02     0.00  -0.03   0.02    -0.01   0.01   0.02
  10   6     0.01  -0.03   0.00     0.03  -0.20   0.12    -0.00   0.02  -0.00
  11   6     0.00  -0.00  -0.01     0.01  -0.03   0.02    -0.00   0.00   0.00
  12   6    -0.00  -0.00  -0.00     0.01  -0.00   0.01    -0.00   0.00   0.00
  13   6    -0.00  -0.00  -0.01     0.03  -0.01   0.02    -0.00   0.00  -0.00
  14   6    -0.00   0.00  -0.00     0.00  -0.00   0.00    -0.00   0.00  -0.00
  15   6     0.00   0.00   0.00    -0.02  -0.00  -0.01     0.00  -0.00  -0.00
  16   1    -0.01   0.03  -0.02     0.00  -0.00  -0.00     0.01  -0.05   0.05
  17   1     0.03  -0.11  -0.05    -0.01   0.03   0.01     0.01  -0.03  -0.02
  18   1     0.07   0.01  -0.04    -0.01  -0.00   0.00    -0.02   0.00   0.01
  19   1     0.04  -0.20   0.19    -0.00   0.00  -0.00    -0.00   0.00  -0.00
  20   1    -0.21   0.60   0.25     0.01  -0.02  -0.01    -0.00   0.01   0.00
  21   1    -0.05   0.17   0.08     0.00  -0.01  -0.00     0.00  -0.01  -0.00
  22   1     0.03  -0.15   0.14    -0.00   0.01  -0.01    -0.01   0.07  -0.06
  23   1    -0.12  -0.02   0.08     0.01   0.00  -0.01     0.00  -0.00  -0.00
  24   1     0.01  -0.04   0.03    -0.00   0.00   0.00    -0.00   0.02  -0.02
  25   1     0.09   0.02   0.04    -0.01  -0.00  -0.00    -0.09  -0.02  -0.05
  26   1    -0.31  -0.06   0.24     0.02   0.00  -0.02     0.02   0.00  -0.01
  27   1    -0.06  -0.01  -0.05    -0.04  -0.01  -0.02    -0.76  -0.16  -0.52
  28   1    -0.12  -0.03   0.09     0.03   0.01  -0.02     0.12   0.03  -0.05
  29   1     0.06   0.01   0.03    -0.01  -0.00  -0.00    -0.09  -0.02  -0.05
  30   1    -0.16  -0.04   0.13     0.08   0.03  -0.07     0.02   0.00  -0.01
  31   1    -0.05  -0.02   0.04     0.03   0.01  -0.02     0.00   0.00  -0.00
  32   1    -0.01   0.03   0.02    -0.00  -0.00  -0.00     0.01  -0.02  -0.02
  33   1     0.01  -0.03   0.01    -0.02   0.10  -0.04    -0.00   0.00   0.00
  34   1    -0.02   0.05   0.06     0.01  -0.02  -0.02     0.02  -0.06  -0.07
  35   1    -0.02   0.08  -0.03    -0.16   0.84  -0.34     0.01  -0.05   0.02
  36   1    -0.00   0.01   0.02     0.04  -0.11  -0.08     0.00  -0.00  -0.01
  37   1    -0.01   0.02   0.02     0.00  -0.01  -0.01     0.00  -0.01  -0.01
  38   1     0.00  -0.01   0.00    -0.02   0.11  -0.04     0.00  -0.01   0.00
  39   1    -0.00   0.01   0.01     0.00  -0.01  -0.01     0.00  -0.00  -0.00
  40   1     0.01  -0.00   0.01    -0.04   0.00  -0.03     0.00  -0.00   0.00
  41   1     0.01  -0.00   0.01    -0.10   0.02  -0.10     0.00  -0.00   0.00
  42   1    -0.01   0.01   0.02    -0.00   0.01   0.02     0.00  -0.00  -0.00
  43   1    -0.00   0.00   0.00     0.00  -0.00  -0.00     0.00  -0.00  -0.00
  44   1     0.01  -0.00   0.01    -0.01   0.00  -0.02     0.00  -0.00   0.00
  45   1    -0.01   0.00  -0.01     0.04  -0.01   0.04     0.00  -0.00   0.00
  46   1     0.00  -0.00  -0.00    -0.00   0.00  -0.00    -0.00   0.01   0.01
  47   1    -0.01  -0.00   0.00     0.02   0.01  -0.01    -0.01  -0.00   0.00
                    130                    131                    132
                        a                      a                      a 
 Frequencies --  3025.5693              3027.0445              3029.8017
 Red. masses --     1.9372                 1.9557                 1.8167
 Frc consts  --     0.0000                 0.0000                 0.0000
 IR Inten    --    66.7152                71.5319                89.8197
 Raman Activ --     0.0000                 0.0000                 0.0000
 Depolar     --     0.0000                 0.0000                 0.0000
 Atom AN      X      Y      Z        X      Y      Z        X      Y      Z
   1   6    -0.04   0.25  -0.13    -0.01  -0.00   0.01    -0.08   0.05   0.14
   2   6    -0.01   0.05  -0.02    -0.00   0.00   0.00    -0.01   0.01   0.02
   3   6    -0.00   0.02  -0.01    -0.00  -0.00   0.00    -0.00   0.00   0.01
   4   6    -0.00   0.00  -0.00    -0.00  -0.00   0.00    -0.00  -0.00   0.00
   5   6    -0.00  -0.00  -0.00    -0.00  -0.00   0.00    -0.00  -0.00   0.00
   6   6    -0.01  -0.00  -0.01     0.00   0.00   0.00     0.00   0.00   0.00
   7   6    -0.00  -0.00  -0.00    -0.00  -0.00   0.00     0.00   0.00   0.00
   8   6    -0.00  -0.00  -0.00    -0.00   0.00   0.00    -0.00   0.00   0.00
   9   6     0.00  -0.00  -0.00    -0.00   0.00   0.00    -0.00   0.00   0.00
  10   6     0.00  -0.00   0.00     0.00  -0.00   0.00    -0.00   0.00  -0.00
  11   6     0.00  -0.00  -0.00    -0.00   0.00   0.00    -0.00   0.00   0.00
  12   6     0.00  -0.00  -0.00     0.00   0.00   0.01    -0.00   0.00   0.00
  13   6     0.00  -0.00  -0.00     0.00   0.00   0.02    -0.01   0.01  -0.00
  14   6    -0.00   0.00  -0.00     0.01   0.01   0.04    -0.02   0.01  -0.00
  15   6    -0.02   0.00   0.01     0.05   0.08   0.27    -0.20   0.03   0.01
  16   1     0.10  -0.52   0.62    -0.01   0.02  -0.02    -0.06   0.21  -0.22
  17   1     0.13  -0.38  -0.20     0.01  -0.02  -0.01     0.13  -0.44  -0.17
  18   1    -0.08   0.03   0.03     0.03   0.00  -0.01     0.22   0.04  -0.12
  19   1     0.01  -0.07   0.08    -0.00   0.01  -0.01    -0.01   0.03  -0.03
  20   1     0.03  -0.08  -0.04     0.00  -0.01  -0.00     0.03  -0.07  -0.03
  21   1     0.00  -0.00  -0.01     0.00  -0.00  -0.00     0.01  -0.03  -0.02
  22   1     0.01  -0.05   0.05    -0.00   0.00  -0.00    -0.00   0.03  -0.02
  23   1    -0.00  -0.00   0.00     0.00   0.00  -0.00     0.01   0.00  -0.00
  24   1     0.00  -0.01   0.01    -0.00   0.00  -0.00    -0.00   0.00  -0.00
  25   1     0.01   0.00   0.01    -0.00  -0.00  -0.00    -0.00  -0.00  -0.00
  26   1     0.00   0.00  -0.00     0.00   0.00  -0.00     0.01   0.00  -0.01
  27   1     0.06   0.01   0.04    -0.01  -0.00  -0.01    -0.01  -0.00  -0.01
  28   1    -0.01  -0.00   0.00     0.00   0.00  -0.00     0.00   0.00  -0.00
  29   1     0.01   0.00   0.01    -0.00  -0.00  -0.00    -0.00  -0.00  -0.00
  30   1    -0.00   0.00  -0.00     0.00   0.00  -0.00     0.00   0.00  -0.00
  31   1     0.00   0.00  -0.00     0.00   0.00  -0.00     0.00   0.00  -0.00
  32   1    -0.00   0.00   0.00     0.00  -0.00  -0.00     0.00  -0.00  -0.00
  33   1    -0.00   0.00  -0.00    -0.00   0.00  -0.00     0.00  -0.00   0.00
  34   1    -0.00   0.01   0.01     0.00  -0.00  -0.00     0.00  -0.00  -0.00
  35   1    -0.00   0.01  -0.01    -0.00   0.02  -0.01     0.00  -0.01   0.00
  36   1    -0.00   0.00   0.00     0.00  -0.01  -0.01     0.00  -0.00  -0.00
  37   1    -0.00   0.00   0.01     0.00  -0.01  -0.01     0.00  -0.00  -0.01
  38   1    -0.00   0.00  -0.00    -0.00   0.00  -0.00     0.00  -0.00   0.00
  39   1    -0.00   0.00   0.01     0.00  -0.01  -0.01     0.00  -0.00  -0.01
  40   1    -0.00   0.00  -0.00    -0.01   0.00  -0.01     0.01  -0.00   0.01
  41   1    -0.01   0.00  -0.01    -0.03   0.00  -0.02     0.03  -0.00   0.03
  42   1    -0.00   0.00   0.01     0.01  -0.02  -0.03     0.01  -0.02  -0.03
  43   1     0.00  -0.00  -0.00     0.03  -0.05  -0.08     0.01  -0.02  -0.04
  44   1     0.00  -0.00   0.00    -0.06   0.01  -0.05     0.05  -0.00   0.05
  45   1     0.02  -0.00   0.02    -0.42   0.09  -0.39     0.35  -0.06   0.38
  46   1     0.01  -0.03  -0.04     0.20  -0.40  -0.59     0.05  -0.18  -0.28
  47   1     0.06   0.02  -0.02     0.06   0.03   0.02     0.31   0.13  -0.14
                    133                    134                    135
                        a                      a                      a 
 Frequencies --  3030.7605              3035.7072              3037.4697
 Red. masses --     1.8510                 1.3873                 1.3471
 Frc consts  --     0.0000                 0.0000                 0.0000
 IR Inten    --    21.7369                59.0482                12.6588
 Raman Activ --     0.0000                 0.0000                 0.0000
 Depolar     --     0.0000                 0.0000                 0.0000
 Atom AN      X      Y      Z        X      Y      Z        X      Y      Z
   1   6    -0.13   0.08   0.15     0.13   0.06  -0.01    -0.10  -0.03   0.01
   2   6    -0.01   0.02   0.02     0.00   0.00  -0.00    -0.00   0.00   0.00
   3   6    -0.00   0.00   0.01    -0.00   0.00   0.00     0.00   0.00  -0.00
   4   6    -0.00  -0.00   0.00    -0.00   0.00  -0.00    -0.00  -0.00   0.00
   5   6    -0.00  -0.00   0.00    -0.00  -0.00  -0.00    -0.00  -0.00   0.00
   6   6    -0.00  -0.00   0.00    -0.00  -0.00  -0.00    -0.00  -0.00   0.00
   7   6    -0.00  -0.00   0.00    -0.00  -0.00  -0.00    -0.00  -0.00   0.00
   8   6    -0.00  -0.00   0.00    -0.00  -0.00  -0.00    -0.00  -0.00   0.00
   9   6     0.00  -0.00   0.00     0.00  -0.00   0.00    -0.00   0.00   0.00
  10   6     0.00  -0.01   0.00     0.00  -0.00   0.00    -0.00   0.00  -0.00
  11   6     0.00  -0.00   0.00     0.00  -0.00   0.00     0.00  -0.00   0.00
  12   6     0.00  -0.00   0.00     0.00  -0.00   0.00     0.00  -0.00  -0.00
  13   6     0.01  -0.01   0.00     0.00  -0.00   0.00    -0.00   0.00  -0.00
  14   6     0.02  -0.01  -0.00     0.00   0.00  -0.00     0.00   0.00  -0.00
  15   6     0.17  -0.04  -0.03     0.08   0.07  -0.04     0.07   0.10  -0.06
  16   1    -0.05   0.15  -0.14    -0.02   0.16  -0.18     0.01  -0.13   0.15
  17   1     0.14  -0.49  -0.19     0.12  -0.31  -0.13    -0.07   0.19   0.08
  18   1     0.35   0.06  -0.19    -0.56  -0.06   0.34     0.43   0.05  -0.26
  19   1    -0.01   0.03  -0.03     0.00  -0.01   0.01    -0.00   0.00  -0.01
  20   1     0.04  -0.11  -0.04     0.00  -0.00  -0.00     0.00  -0.01  -0.00
  21   1     0.01  -0.04  -0.02     0.00  -0.00  -0.00     0.00  -0.00  -0.00
  22   1    -0.00   0.03  -0.02    -0.00  -0.00   0.00     0.00  -0.00   0.00
  23   1     0.01   0.00  -0.01     0.00   0.00  -0.00     0.00   0.00  -0.00
  24   1    -0.00   0.00  -0.00     0.00  -0.00   0.00    -0.00   0.00  -0.00
  25   1     0.00   0.00   0.00     0.00   0.00   0.00    -0.00  -0.00  -0.00
  26   1     0.01   0.00  -0.01    -0.00  -0.00   0.00     0.00   0.00  -0.00
  27   1     0.00   0.00   0.00     0.01   0.00   0.01    -0.00  -0.00  -0.00
  28   1     0.01   0.00  -0.01    -0.00  -0.00   0.00     0.00   0.00  -0.00
  29   1     0.00   0.00   0.00     0.00   0.00   0.00     0.00   0.00   0.00
  30   1     0.01   0.00  -0.01    -0.00  -0.00   0.00     0.00   0.00  -0.00
  31   1     0.00   0.00  -0.00     0.00   0.00  -0.00     0.00   0.00  -0.00
  32   1    -0.00   0.00   0.00    -0.00   0.00   0.00     0.00  -0.00  -0.00
  33   1    -0.00   0.01  -0.00    -0.00   0.00  -0.00    -0.00   0.00  -0.00
  34   1    -0.00   0.00   0.00    -0.00   0.00   0.00     0.00  -0.00  -0.00
  35   1    -0.01   0.03  -0.01    -0.00   0.01  -0.00     0.00  -0.00   0.00
  36   1     0.00  -0.00  -0.00    -0.00  -0.00   0.00    -0.00   0.00   0.00
  37   1    -0.00   0.00   0.00     0.00  -0.00  -0.00     0.00  -0.00  -0.00
  38   1    -0.00   0.01  -0.00    -0.00   0.00  -0.00    -0.00   0.00  -0.00
  39   1    -0.00   0.01   0.01    -0.00   0.00   0.00    -0.00   0.00   0.00
  40   1    -0.01   0.00  -0.01    -0.00   0.00  -0.00    -0.00  -0.00  -0.00
  41   1    -0.04   0.00  -0.04    -0.00   0.00  -0.00     0.00  -0.00   0.00
  42   1    -0.01   0.02   0.03    -0.00   0.00   0.00     0.00  -0.00  -0.00
  43   1    -0.01   0.03   0.04    -0.00   0.00   0.01    -0.00   0.01   0.01
  44   1    -0.04   0.00  -0.04    -0.01   0.00  -0.01    -0.00   0.00  -0.00
  45   1    -0.28   0.05  -0.31     0.13  -0.01   0.11     0.25  -0.03   0.23
  46   1    -0.06   0.19   0.29     0.05  -0.08  -0.14     0.08  -0.15  -0.25
  47   1    -0.24  -0.10   0.10    -0.47  -0.17   0.19    -0.58  -0.20   0.23
