      -----------------------------------------------------------      
     |                   =====================                   |     
     |                           x T B                           |     
     |                   =====================                   |     
     |                         S. Grimme                         |     
     |          Mulliken Center for Theoretical Chemistry        |     
     |                    University of Bonn                     |     
      -----------------------------------------------------------      

   * xtb version 6.6.1 (8d0f1dd) compiled by 'stahn@M-Bot' on 2023-08-01

   xtb is free software: you can redistribute it and/or modify it under
   the terms of the GNU Lesser General Public License as published by
   the Free Software Foundation, either version 3 of the License, or
   (at your option) any later version.
   
   xtb is distributed in the hope that it will be useful,
   but WITHOUT ANY WARRANTY; without even the implied warranty of
   MERCHANTABILITY or FITNESS FOR A PARTICULAR PURPOSE.  See the
   GNU Lesser General Public License for more details.
   
   Cite this work as:
   * C. Bannwarth, E. Caldeweyher, S. Ehlert, A. Hansen, P. Pracht,
     J. Seibert, S. Spicher, S. Grimme, WIREs Comput. Mol. Sci., 2020, 11,
     e01493. DOI: 10.1002/wcms.1493
   
   for GFN2-xTB:
   * C. Bannwarth, S. Ehlert and S. Grimme., J. Chem. Theory Comput., 2019,
     15, 1652-1671. DOI: 10.1021/acs.jctc.8b01176
   for GFN1-xTB:
   * S. Grimme, C. Bannwarth, P. Shushkov, J. Chem. Theory Comput., 2017,
     13, 1989-2009. DOI: 10.1021/acs.jctc.7b00118
   for GFN0-xTB:
   * P. Pracht, E. Caldeweyher, S. Ehlert, S. Grimme, ChemRxiv, 2019, preprint.
     DOI: 10.26434/chemrxiv.8326202.v1
   for GFN-FF:
   * S. Spicher and S. Grimme, Angew. Chem. Int. Ed., 2020, 59, 15665-15673.
     DOI: 10.1002/anie.202004239
   
   for ALPB and GBSA implicit solvation:
   * S. Ehlert, M. Stahn, S. Spicher, S. Grimme, J. Chem. Theory Comput.,
     2021, 17, 4250-4261. DOI: 10.1021/acs.jctc.1c00471
   
   for DFT-D4:
   * E. Caldeweyher, C. Bannwarth and S. Grimme, J. Chem. Phys., 2017,
     147, 034112. DOI: 10.1063/1.4993215
   * E. Caldeweyher, S. Ehlert, A. Hansen, H. Neugebauer, S. Spicher,
     C. Bannwarth and S. Grimme, J. Chem. Phys., 2019, 150, 154122.
     DOI: 10.1063/1.5090222
   * E. Caldeweyher, J.-M. Mewes, S. Ehlert and S. Grimme, Phys. Chem. Chem. Phys.
     2020, 22, 8499-8512. DOI: 10.1039/D0CP00502A
   
   for sTDA-xTB:
   * S. Grimme and C. Bannwarth, J. Chem. Phys., 2016, 145, 054103.
     DOI: 10.1063/1.4959605
   
   in the mass-spec context:
   * V. Asgeirsson, C. Bauer and S. Grimme, Chem. Sci., 2017, 8, 4879.
     DOI: 10.1039/c7sc00601b
   * J. Koopman and S. Grimme, ACS Omega 2019, 4, 12, 15120-15133.
     DOI: 10.1021/acsomega.9b02011
   
   for metadynamics refer to:
   * S. Grimme, J. Chem. Theory Comput., 2019, 155, 2847-2862
     DOI: 10.1021/acs.jctc.9b00143
   
   for SPH calculations refer to:
   * S. Spicher and S. Grimme, J. Chem. Theory Comput., 2021, 17, 1701-1714
     DOI: 10.1021/acs.jctc.0c01306
   
   with help from (in alphabetical order)
   P. Atkinson, C. Bannwarth, F. Bohle, G. Brandenburg, E. Caldeweyher
   M. Checinski, S. Dohm, S. Ehlert, S. Ehrlich, I. Gerasimov, C. Hölzer
   A. Katbashev, J. Koopman, C. Lavigne, S. Lehtola, F. März, M. Müller,
   F. Musil, H. Neugebauer, J. Pisarek, C. Plett, P. Pracht, F. Pultar,
   J. Seibert, P. Shushkov, S. Spicher, M. Stahn, M. Steiner, T. Strunk,
   J. Stückrath, T. Rose, and J. Unsleber
   
 * started run on 2024/04/23 at 12:10:41.033     

           -------------------------------------------------
          |                Calculation Setup                |
           -------------------------------------------------

          program call               : xtb folded.xyz --gfn 2 --ohess -P 4
          coordinate file            : folded.xyz
          omp threads                :                     4

   ID    Z sym.   atoms
    1    6 C      1-15
    2    1 H      16-47

           -------------------------------------------------
          |                 G F N 2 - x T B                 |
           -------------------------------------------------

        Reference                      10.1021/acs.jctc.8b01176
      * Hamiltonian:
        H0-scaling (s, p, d)           1.850000    2.230000    2.230000
        zeta-weighting                 0.500000
      * Dispersion:
        s8                             2.700000
        a1                             0.520000
        a2                             5.000000
        s9                             5.000000
      * Repulsion:
        kExp                           1.500000    1.000000
        rExp                           1.000000
      * Coulomb:
        alpha                          2.000000
        third order                    shell-resolved
        anisotropic                    true
        a3                             3.000000
        a5                             4.000000
        cn-shift                       1.200000
        cn-exp                         4.000000
        max-rad                        5.000000


          ...................................................
          :                      SETUP                      :
          :.................................................:
          :  # basis functions                  92          :
          :  # atomic orbitals                  92          :
          :  # shells                           62          :
          :  # electrons                        92          :
          :  max. iterations                   250          :
          :  Hamiltonian                  GFN2-xTB          :
          :  restarted?                      false          :
          :  GBSA solvation                  false          :
          :  PC potential                    false          :
          :  electronic temp.          300.0000000     K    :
          :  accuracy                    1.0000000          :
          :  -> integral cutoff          0.2500000E+02      :
          :  -> integral neglect         0.1000000E-07      :
          :  -> SCF convergence          0.1000000E-05 Eh   :
          :  -> wf. convergence          0.1000000E-03 e    :
          :  Broyden damping             0.4000000          :
          ...................................................

 iter      E             dE          RMSdq      gap      omega  full diag
   1    -49.0470919 -0.490471E+02  0.249E+00   12.67       0.0  T
   2    -49.1677468 -0.120655E+00  0.135E+00   12.44       1.0  T
   3    -49.1693128 -0.156608E-02  0.710E-01   12.41       1.0  T
   4    -49.1696705 -0.357652E-03  0.854E-02   12.43       1.0  T
   5    -49.1696844 -0.139438E-04  0.441E-02   12.43       1.0  T
   6    -49.1696871 -0.268765E-05  0.419E-03   12.43       3.5  T
   7    -49.1696872 -0.129886E-06  0.133E-03   12.43      11.0  T
   8    -49.1696873 -0.145494E-07  0.307E-04   12.43      47.5  T
   9    -49.1696873 -0.218336E-09  0.130E-04   12.43     112.0  T

   *** convergence criteria satisfied after 9 iterations ***

         #    Occupation            Energy/Eh            Energy/eV
      -------------------------------------------------------------
         1        2.0000           -0.6227703             -16.9464
       ...           ...                  ...                  ...
        40        2.0000           -0.4231236             -11.5138
        41        2.0000           -0.4185501             -11.3893
        42        2.0000           -0.4152054             -11.2983
        43        2.0000           -0.4136823             -11.2569
        44        2.0000           -0.4115509             -11.1989
        45        2.0000           -0.4082630             -11.1094
        46        2.0000           -0.4071134             -11.0781 (HOMO)
        47                          0.0496665               1.3515 (LUMO)
        48                          0.0585461               1.5931
        49                          0.0712125               1.9378
        50                          0.0729214               1.9843
        51                          0.0885013               2.4082
       ...                                ...                  ...
        92                          0.3249994               8.8437
      -------------------------------------------------------------
                  HL-Gap            0.4567799 Eh           12.4296 eV
             Fermi-level           -0.1787235 Eh           -4.8633 eV

 SCC (total)                   0 d,  0 h,  0 min,  0.075 sec
 SCC setup                      ...        0 min,  0.002 sec (  2.061%)
 Dispersion                     ...        0 min,  0.002 sec (  2.715%)
 classical contributions        ...        0 min,  0.000 sec (  0.237%)
 integral evaluation            ...        0 min,  0.007 sec (  9.978%)
 iterations                     ...        0 min,  0.055 sec ( 73.310%)
 molecular gradient             ...        0 min,  0.008 sec ( 10.986%)
 printout                       ...        0 min,  0.000 sec (  0.585%)

         :::::::::::::::::::::::::::::::::::::::::::::::::::::
         ::                     SUMMARY                     ::
         :::::::::::::::::::::::::::::::::::::::::::::::::::::
         :: total energy             -48.466230909160 Eh    ::
         :: gradient norm              0.035451757223 Eh/a0 ::
         :: HOMO-LUMO gap             12.429614004441 eV    ::
         ::.................................................::
         :: SCC energy               -49.169687256378 Eh    ::
         :: -> isotropic ES            0.007314152983 Eh    ::
         :: -> anisotropic ES          0.016276401602 Eh    ::
         :: -> anisotropic XC          0.028593285713 Eh    ::
         :: -> dispersion             -0.035421131448 Eh    ::
         :: repulsion energy           0.702499834124 Eh    ::
         :: add. restraining           0.000000000000 Eh    ::
         :: total charge               0.000000000000 e     ::
         :::::::::::::::::::::::::::::::::::::::::::::::::::::

      ----------------------------------------------------------- 
     |                   =====================                   |
     |                        A N C O P T                        |
     |                   =====================                   |
     |               Approximate Normal Coordinate               |
     |                Rational Function Optimizer                |
      ----------------------------------------------------------- 

          ...................................................
          :                      SETUP                      :
          :.................................................:
          :   optimization level            normal          :
          :   max. optcycles                   200          :
          :   ANC micro-cycles                  20          :
          :   degrees of freedom               135          :
          :.................................................:
          :   RF solver                   davidson          :
          :   write xtbopt.log                true          :
          :   linear?                        false          :
          :   energy convergence         0.5000000E-05 Eh   :
          :   grad. convergence          0.1000000E-02 Eh/α :
          :   maxmium RF displ.          2.0000000          :
          :   Hlow (freq-cutoff)         0.2000000E-01      :
          :   Hmax (freq-cutoff)         5.0000000          :
          :   S6 in model hess.         70.0000000          :
          ...................................................

generating ANC from model Hessian ...
Using Lindh-Hessian (1995)
 Shifting diagonal of input Hessian by   1.955362346008802E-002
 Lowest  eigenvalues of input Hessian
    0.000000    0.000000    0.000000    0.000000    0.000000    0.000000
    0.020000    0.020372    0.020887    0.021128    0.022029    0.023381
    0.023997    0.024394    0.024681    0.025241    0.026152    0.026977
 Highest eigenvalues
    1.234202    1.252914    1.290575    1.299802    1.312796    1.322115
 

........................................................................
.............................. CYCLE    1 ..............................
........................................................................

 iter      E             dE          RMSdq      gap      omega  full diag
   1    -49.1696873 -0.491697E+02  0.223E-05   12.43       0.0  T
   2    -49.1696873 -0.339639E-11  0.124E-05   12.43    1172.4  T
   3    -49.1696873 -0.149214E-12  0.572E-06   12.43    2549.7  T
     SCC iter.                  ...        0 min,  0.005 sec
     gradient                   ...        0 min,  0.006 sec
 * total energy  :   -48.4662309 Eh     change       -0.5255174E-10 Eh
   gradient norm :     0.0354512 Eh/α   predicted     0.0000000E+00 (-100.00%)
   displ. norm   :     0.2041714 α      lambda       -0.4236768E-02
   maximum displ.:     0.0853507 α      in ANC's #62, #60, #45, ...

........................................................................
.............................. CYCLE    2 ..............................
........................................................................

 iter      E             dE          RMSdq      gap      omega  full diag
   1    -49.1840653 -0.491841E+02  0.144E-01   12.58       0.0  T
   2    -49.1840715 -0.614130E-05  0.828E-02   12.58       1.0  T
   3    -49.1840724 -0.972746E-06  0.387E-03   12.58       3.8  T
   4    -49.1840725 -0.996618E-07  0.136E-03   12.58      10.7  T
   5    -49.1840725 -0.543574E-08  0.718E-04   12.58      20.3  T
   6    -49.1840725 -0.784866E-09  0.838E-05   12.58     174.1  T
     SCC iter.                  ...        0 min,  0.007 sec
     gradient                   ...        0 min,  0.006 sec
 * total energy  :   -48.4690454 Eh     change       -0.2814448E-02 Eh
   gradient norm :     0.0155235 Eh/α   predicted    -0.2206703E-02 ( -21.59%)
   displ. norm   :     0.1121635 α      lambda       -0.8247865E-03
   maximum displ.:     0.0403584 α      in ANC's #60, #62, #26, ...

........................................................................
.............................. CYCLE    3 ..............................
........................................................................

 iter      E             dE          RMSdq      gap      omega  full diag
   1    -49.1937510 -0.491938E+02  0.697E-02   12.64       0.0  T
   2    -49.1937547 -0.370324E-05  0.395E-02   12.65       1.0  T
   3    -49.1937549 -0.210677E-06  0.354E-03   12.65       4.1  T
   4    -49.1937550 -0.321539E-07  0.704E-04   12.65      20.7  T
   5    -49.1937550 -0.224612E-08  0.397E-04   12.65      36.8  T
     SCC iter.                  ...        0 min,  0.007 sec
     gradient                   ...        0 min,  0.006 sec
 * total energy  :   -48.4694924 Eh     change       -0.4470627E-03 Eh
   gradient norm :     0.0026722 Eh/α   predicted    -0.4175913E-03 (  -6.59%)
   displ. norm   :     0.0377779 α      lambda       -0.3809990E-04
   maximum displ.:     0.0135673 α      in ANC's #6, #7, #12, ...

........................................................................
.............................. CYCLE    4 ..............................
........................................................................

 iter      E             dE          RMSdq      gap      omega  full diag
   1    -49.1950210 -0.491950E+02  0.762E-03   12.65       0.0  T
   2    -49.1950212 -0.118368E-06  0.435E-03   12.65       3.4  T
   3    -49.1950212 -0.320826E-08  0.768E-04   12.65      19.0  T
   4    -49.1950212 -0.126365E-08  0.139E-04   12.65     104.9  T
     SCC iter.                  ...        0 min,  0.005 sec
     gradient                   ...        0 min,  0.006 sec
 * total energy  :   -48.4695252 Eh     change       -0.3280578E-04 Eh
   gradient norm :     0.0009835 Eh/α   predicted    -0.2042536E-04 ( -37.74%)
   displ. norm   :     0.1552458 α      lambda       -0.7298868E-04
   maximum displ.:     0.0610410 α      in ANC's #6, #7, #1, ...

........................................................................
.............................. CYCLE    5 ..............................
........................................................................

 iter      E             dE          RMSdq      gap      omega  full diag
   1    -49.1965682 -0.491966E+02  0.218E-02   12.67       0.0  T
   2    -49.1965686 -0.436850E-06  0.128E-02   12.67       1.1  T
   3    -49.1965686 -0.342287E-07  0.132E-03   12.67      11.0  T
   4    -49.1965687 -0.134332E-07  0.451E-04   12.67      32.4  T
   5    -49.1965687 -0.135424E-08  0.167E-04   12.67      87.4  T
     SCC iter.                  ...        0 min,  0.009 sec
     gradient                   ...        0 min,  0.006 sec
 * total energy  :   -48.4695830 Eh     change       -0.5777994E-04 Eh
   gradient norm :     0.0044384 Eh/α   predicted    -0.3704728E-04 ( -35.88%)
   displ. norm   :     0.0506582 α      lambda       -0.2891588E-04
   maximum displ.:     0.0213507 α      in ANC's #6, #1, #5, ...

........................................................................
.............................. CYCLE    6 ..............................
........................................................................

 iter      E             dE          RMSdq      gap      omega  full diag
   1    -49.1958759 -0.491959E+02  0.632E-03   12.67       0.0  T
   2    -49.1958760 -0.514637E-07  0.368E-03   12.67       4.0  T
   3    -49.1958760 -0.176619E-08  0.454E-04   12.67      32.1  T
   4    -49.1958760 -0.783103E-09  0.102E-04   12.67     142.4  T
     SCC iter.                  ...        0 min,  0.005 sec
     gradient                   ...        0 min,  0.006 sec
 * total energy  :   -48.4696088 Eh     change       -0.2575645E-04 Eh
   gradient norm :     0.0031387 Eh/α   predicted    -0.1449884E-04 ( -43.71%)
   displ. norm   :     0.2069456 α      lambda       -0.9682164E-04
   maximum displ.:     0.0876166 α      in ANC's #1, #6, #5, ...

........................................................................
.............................. CYCLE    7 ..............................
........................................................................

 iter      E             dE          RMSdq      gap      omega  full diag
   1    -49.1935804 -0.491936E+02  0.245E-02   12.67       0.0  T
   2    -49.1935809 -0.572558E-06  0.144E-02   12.67       1.0  T
   3    -49.1935810 -0.204176E-07  0.141E-03   12.67      10.3  T
   4    -49.1935810 -0.112682E-07  0.372E-04   12.67      39.2  T
   5    -49.1935810 -0.102502E-08  0.173E-04   12.67      84.1  T
     SCC iter.                  ...        0 min,  0.006 sec
     gradient                   ...        0 min,  0.008 sec
 * total energy  :   -48.4696659 Eh     change       -0.5712679E-04 Eh
   gradient norm :     0.0017071 Eh/α   predicted    -0.5050444E-04 ( -11.59%)
   displ. norm   :     0.1133859 α      lambda       -0.1871478E-04
   maximum displ.:     0.0531922 α      in ANC's #1, #4, #5, ...

........................................................................
.............................. CYCLE    8 ..............................
........................................................................

 iter      E             dE          RMSdq      gap      omega  full diag
   1    -49.1934191 -0.491934E+02  0.129E-02   12.66       0.0  T
   2    -49.1934191 -0.318343E-07  0.764E-03   12.66       1.9  T
   3    -49.1934191 -0.428968E-08  0.410E-04   12.66      35.6  T
   4    -49.1934191 -0.270174E-08  0.184E-04   12.66      79.5  T
     SCC iter.                  ...        0 min,  0.005 sec
     gradient                   ...        0 min,  0.006 sec
 * total energy  :   -48.4696873 Eh     change       -0.2139034E-04 Eh
   gradient norm :     0.0023468 Eh/α   predicted    -0.9421826E-05 ( -55.95%)
   displ. norm   :     0.1116494 α      lambda       -0.3444786E-04
   maximum displ.:     0.0555758 α      in ANC's #1, #4, #5, ...

........................................................................
.............................. CYCLE    9 ..............................
........................................................................

 iter      E             dE          RMSdq      gap      omega  full diag
   1    -49.1940436 -0.491940E+02  0.129E-02   12.65       0.0  T
   2    -49.1940437 -0.483801E-07  0.763E-03   12.65       1.9  T
   3    -49.1940437 -0.545564E-08  0.433E-04   12.65      33.7  T
   4    -49.1940437 -0.211914E-08  0.189E-04   12.65      77.3  T
     SCC iter.                  ...        0 min,  0.005 sec
     gradient                   ...        0 min,  0.009 sec
 * total energy  :   -48.4697146 Eh     change       -0.2727840E-04 Eh
   gradient norm :     0.0014379 Eh/α   predicted    -0.1744067E-04 ( -36.06%)
   displ. norm   :     0.2649484 α      lambda       -0.3939787E-04
   maximum displ.:     0.1350318 α      in ANC's #1, #4, #5, ...

........................................................................
.............................. CYCLE   10 ..............................
........................................................................

 iter      E             dE          RMSdq      gap      omega  full diag
   1    -49.1946443 -0.491946E+02  0.305E-02   12.64       0.0  T
   2    -49.1946444 -0.195316E-06  0.181E-02   12.64       1.0  T
   3    -49.1946445 -0.287145E-07  0.949E-04   12.64      15.4  T
   4    -49.1946445 -0.110701E-07  0.437E-04   12.64      33.4  T
     SCC iter.                  ...        0 min,  0.005 sec
     gradient                   ...        0 min,  0.006 sec
 * total energy  :   -48.4697419 Eh     change       -0.2729713E-04 Eh
   gradient norm :     0.0013666 Eh/α   predicted    -0.2031937E-04 ( -25.56%)
   displ. norm   :     0.0317766 α      lambda       -0.1131995E-04
   maximum displ.:     0.0140054 α      in ANC's #6, #9, #11, ...

........................................................................
.............................. CYCLE   11 ..............................
........................................................................

 iter      E             dE          RMSdq      gap      omega  full diag
   1    -49.1950017 -0.491950E+02  0.502E-03   12.64       0.0  T
   2    -49.1950017 -0.131686E-07  0.293E-03   12.64       5.0  T
   3    -49.1950017 -0.126706E-08  0.227E-04   12.64      64.2  T
   4    -49.1950017 -0.521894E-09  0.866E-05   12.64     168.3  T
     SCC iter.                  ...        0 min,  0.005 sec
     gradient                   ...        0 min,  0.006 sec
 * total energy  :   -48.4697565 Eh     change       -0.1464729E-04 Eh
   gradient norm :     0.0010002 Eh/α   predicted    -0.5671985E-05 ( -61.28%)
   displ. norm   :     0.1951907 α      lambda       -0.3931826E-04
   maximum displ.:     0.0969608 α      in ANC's #1, #4, #9, ...

........................................................................
.............................. CYCLE   12 ..............................
........................................................................

 iter      E             dE          RMSdq      gap      omega  full diag
   1    -49.1943225 -0.491943E+02  0.252E-02   12.67       0.0  T
   2    -49.1943227 -0.121473E-06  0.149E-02   12.67       1.0  T
   3    -49.1943227 -0.259781E-07  0.665E-04   12.67      21.9  T
   4    -49.1943227 -0.253012E-08  0.339E-04   12.67      43.1  T
     SCC iter.                  ...        0 min,  0.006 sec
     gradient                   ...        0 min,  0.006 sec
 * total energy  :   -48.4697909 Eh     change       -0.3435913E-04 Eh
   gradient norm :     0.0010348 Eh/α   predicted    -0.2001477E-04 ( -41.75%)
   displ. norm   :     0.1117470 α      lambda       -0.1188308E-04
   maximum displ.:     0.0603209 α      in ANC's #1, #4, #9, ...

........................................................................
.............................. CYCLE   13 ..............................
........................................................................

 iter      E             dE          RMSdq      gap      omega  full diag
   1    -49.1947786 -0.491948E+02  0.128E-02   12.67       0.0  T
   2    -49.1947786 -0.238844E-07  0.760E-03   12.67       1.9  T
   3    -49.1947786 -0.448833E-08  0.345E-04   12.67      42.2  T
   4    -49.1947786 -0.137948E-08  0.171E-04   12.67      85.4  T
     SCC iter.                  ...        0 min,  0.005 sec
     gradient                   ...        0 min,  0.006 sec
 * total energy  :   -48.4698046 Eh     change       -0.1377081E-04 Eh
   gradient norm :     0.0008695 Eh/α   predicted    -0.5974965E-05 ( -56.61%)
   displ. norm   :     0.2483245 α      lambda       -0.2193204E-04
   maximum displ.:     0.1438206 α      in ANC's #1, #4, #9, ...

........................................................................
.............................. CYCLE   14 ..............................
........................................................................

 iter      E             dE          RMSdq      gap      omega  full diag
   1    -49.1945098 -0.491945E+02  0.281E-02   12.67       0.0  T
   2    -49.1945099 -0.641141E-07  0.167E-02   12.67       1.0  T
   3    -49.1945099 -0.243428E-07  0.621E-04   12.67      23.5  T
   4    -49.1945099 -0.145985E-08  0.305E-04   12.67      47.8  T
     SCC iter.                  ...        0 min,  0.005 sec
     gradient                   ...        0 min,  0.006 sec
 * total energy  :   -48.4698273 Eh     change       -0.2271232E-04 Eh
   gradient norm :     0.0007715 Eh/α   predicted    -0.1126840E-04 ( -50.39%)
   displ. norm   :     0.1711559 α      lambda       -0.1488612E-04
   maximum displ.:     0.1045381 α      in ANC's #1, #4, #9, ...

........................................................................
.............................. CYCLE   15 ..............................
........................................................................

 iter      E             dE          RMSdq      gap      omega  full diag
   1    -49.1946885 -0.491947E+02  0.187E-02   12.66       0.0  T
   2    -49.1946886 -0.390938E-07  0.111E-02   12.66       1.3  T
   3    -49.1946886 -0.105328E-07  0.460E-04   12.66      31.7  T
   4    -49.1946886 -0.185439E-08  0.236E-04   12.66      61.9  T
     SCC iter.                  ...        0 min,  0.005 sec
     gradient                   ...        0 min,  0.006 sec
 * total energy  :   -48.4698427 Eh     change       -0.1537837E-04 Eh
   gradient norm :     0.0007062 Eh/α   predicted    -0.7540702E-05 ( -50.97%)
   displ. norm   :     0.1419442 α      lambda       -0.1050388E-04
   maximum displ.:     0.0916448 α      in ANC's #1, #4, #9, ...

........................................................................
.............................. CYCLE   16 ..............................
........................................................................

 iter      E             dE          RMSdq      gap      omega  full diag
   1    -49.1946390 -0.491946E+02  0.153E-02   12.66       0.0  T
   2    -49.1946390 -0.223047E-07  0.904E-03   12.66       1.6  T
   3    -49.1946390 -0.680346E-08  0.356E-04   12.66      41.0  T
   4    -49.1946390 -0.106505E-08  0.186E-04   12.66      78.6  T
     SCC iter.                  ...        0 min,  0.005 sec
     gradient                   ...        0 min,  0.006 sec
 * total energy  :   -48.4698541 Eh     change       -0.1136376E-04 Eh
   gradient norm :     0.0006121 Eh/α   predicted    -0.5303469E-05 ( -53.33%)
   displ. norm   :     0.1175014 α      lambda       -0.1018363E-04
   maximum displ.:     0.0781902 α      in ANC's #1, #4, #9, ...

........................................................................
.............................. CYCLE   17 ..............................
........................................................................

 iter      E             dE          RMSdq      gap      omega  full diag
   1    -49.1948011 -0.491948E+02  0.124E-02   12.66       0.0  T
   2    -49.1948012 -0.197117E-07  0.730E-03   12.66       2.0  T
   3    -49.1948012 -0.519692E-08  0.295E-04   12.66      49.4  T
   4    -49.1948012 -0.628951E-09  0.153E-04   12.66      95.2  T
     SCC iter.                  ...        0 min,  0.006 sec
     gradient                   ...        0 min,  0.006 sec
 * total energy  :   -48.4698646 Eh     change       -0.1052418E-04 Eh
   gradient norm :     0.0006782 Eh/α   predicted    -0.5127236E-05 ( -51.28%)
   displ. norm   :     0.1097079 α      lambda       -0.7967179E-05
   maximum displ.:     0.0763397 α      in ANC's #1, #4, #9, ...

........................................................................
.............................. CYCLE   18 ..............................
........................................................................

 iter      E             dE          RMSdq      gap      omega  full diag
   1    -49.1946256 -0.491946E+02  0.114E-02   12.66       0.0  T
   2    -49.1946256 -0.146731E-07  0.675E-03   12.66       2.2  T
   3    -49.1946256 -0.460821E-08  0.270E-04   12.66      54.0  T
   4    -49.1946256 -0.398636E-09  0.139E-04   12.66     104.6  T
     SCC iter.                  ...        0 min,  0.005 sec
     gradient                   ...        0 min,  0.006 sec
 * total energy  :   -48.4698731 Eh     change       -0.8473225E-05 Eh
   gradient norm :     0.0005387 Eh/α   predicted    -0.4007957E-05 ( -52.70%)
   displ. norm   :     0.0927182 α      lambda       -0.7920462E-05
   maximum displ.:     0.0585288 α      in ANC's #1, #4, #5, ...

........................................................................
.............................. CYCLE   19 ..............................
........................................................................

 iter      E             dE          RMSdq      gap      omega  full diag
   1    -49.1948934 -0.491949E+02  0.967E-03   12.67       0.0  T
   2    -49.1948934 -0.171830E-07  0.571E-03   12.67       2.6  T
   3    -49.1948934 -0.371889E-08  0.282E-04   12.67      51.7  T
   4    -49.1948934 -0.647766E-09  0.142E-04   12.67     103.0  T
     SCC iter.                  ...        0 min,  0.005 sec
     gradient                   ...        0 min,  0.006 sec
 * total energy  :   -48.4698811 Eh     change       -0.8051955E-05 Eh
   gradient norm :     0.0006367 Eh/α   predicted    -0.3977645E-05 ( -50.60%)
   displ. norm   :     0.1348400 α      lambda       -0.7404241E-05
   maximum displ.:     0.0999158 α      in ANC's #1, #4, #3, ...

........................................................................
.............................. CYCLE   20 ..............................
........................................................................

 iter      E             dE          RMSdq      gap      omega  full diag
   1    -49.1942863 -0.491943E+02  0.135E-02   12.68       0.0  T
   2    -49.1942863 -0.330245E-07  0.797E-03   12.68       1.8  T
   3    -49.1942863 -0.687781E-08  0.362E-04   12.68      40.3  T
   4    -49.1942863 -0.956469E-09  0.181E-04   12.68      80.7  T
     SCC iter.                  ...        0 min,  0.005 sec
     gradient                   ...        0 min,  0.006 sec
 * total energy  :   -48.4698880 Eh     change       -0.6875455E-05 Eh
   gradient norm :     0.0007455 Eh/α   predicted    -0.3733685E-05 ( -45.70%)
   displ. norm   :     0.0597900 α      lambda       -0.6195734E-05
   maximum displ.:     0.0298130 α      in ANC's #5, #1, #10, ...
 * RMSD in coord.:     0.2916501 α      energy gain  -0.3657102E-02 Eh

generating ANC from model Hessian ...
Using Lindh-Hessian (1995)
 Shifting diagonal of input Hessian by   1.952204582587714E-002
 Lowest  eigenvalues of input Hessian
    0.000000    0.000000    0.000000    0.000000    0.000000    0.000000
    0.020000    0.020333    0.020683    0.020907    0.022078    0.023443
    0.023950    0.024571    0.024725    0.025349    0.026177    0.027177
 Highest eigenvalues
    1.240969    1.256294    1.289658    1.300318    1.317907    1.326456
 

........................................................................
.............................. CYCLE   21 ..............................
........................................................................

 iter      E             dE          RMSdq      gap      omega  full diag
   1    -49.1948810 -0.491949E+02  0.743E-03   12.68       0.0  T
   2    -49.1948810 -0.194031E-07  0.440E-03   12.68       3.3  T
   3    -49.1948811 -0.229878E-08  0.292E-04   12.68      49.9  T
   4    -49.1948811 -0.974765E-09  0.129E-04   12.68     113.0  T
     SCC iter.                  ...        0 min,  0.006 sec
     gradient                   ...        0 min,  0.006 sec
 * total energy  :   -48.4698937 Eh     change       -0.5710538E-05 Eh
   gradient norm :     0.0005177 Eh/α   predicted     0.0000000E+00 (-100.00%)
   displ. norm   :     0.0129213 α      lambda       -0.2550895E-05
   maximum displ.:     0.0046696 α      in ANC's #1, #9, #8, ...

........................................................................
.............................. CYCLE   22 ..............................
........................................................................

 iter      E             dE          RMSdq      gap      omega  full diag
   1    -49.1946876 -0.491947E+02  0.293E-03   12.67       0.0  T
   2    -49.1946876 -0.289615E-08  0.173E-03   12.67       8.4  T
   3    -49.1946876 -0.440870E-09  0.108E-04   12.67     135.3  T
   4    -49.1946876 -0.122220E-09  0.493E-05   12.67     295.6  T
     SCC iter.                  ...        0 min,  0.005 sec
     gradient                   ...        0 min,  0.006 sec
 * total energy  :   -48.4698967 Eh     change       -0.2938048E-05 Eh
   gradient norm :     0.0002677 Eh/α   predicted    -0.1281664E-05 ( -56.38%)
   displ. norm   :     0.0388409 α      lambda       -0.4854396E-05
   maximum displ.:     0.0160918 α      in ANC's #1, #9, #8, ...

   *** GEOMETRY OPTIMIZATION CONVERGED AFTER 22 ITERATIONS ***

------------------------------------------------------------------------
 total energy gain   :        -0.0036658 Eh       -2.3003 kcal/mol
 total RMSD          :         0.2917884 a0        0.1544 Å
 total power (kW/mol):        -0.4374740 (step)  -26.4224 (real)
------------------------------------------------------------------------

 ANCopt (total)                0 d,  0 h,  0 min,  0.364 sec
 optimizer setup                ...        0 min,  0.001 sec (  0.229%)
 model hessian                  ...        0 min,  0.053 sec ( 14.540%)
 ANC generation                 ...        0 min,  0.003 sec (  0.858%)
 coordinate transformation      ...        0 min,  0.001 sec (  0.144%)
 single point calculation       ...        0 min,  0.297 sec ( 81.496%)
 optimization log               ...        0 min,  0.005 sec (  1.309%)
 hessian update                 ...        0 min,  0.001 sec (  0.139%)
 rational function              ...        0 min,  0.002 sec (  0.577%)

================
 final structure:
================
47
 xtb: 6.6.1 (8d0f1dd)
C            0.39838703444629        3.20437470687285        1.05145406020809
C           -0.67890899885755        2.68093490519720        0.10921586917394
C           -2.00772099516749        2.47570347984708        0.83352330418487
C           -3.16437356299930        2.09489257079769       -0.09394592740567
C           -2.93188426528673        0.83855979205676       -0.93575059251292
C           -2.64807996007056       -0.41021463757175       -0.10474548662892
C           -2.38794926938861       -1.62473834620934       -0.99275667229580
C           -2.02606565979342       -2.89081289282045       -0.21258337271855
C           -0.81557471150075       -2.75224160615117        0.71442923877192
C            0.44545297400677       -2.26266995009715        0.00637290453485
C            1.63069612421744       -2.17350689650254        0.96504894844327
C            2.90216187775766       -1.63841192588631        0.30473276503095
C            2.80814909769007       -0.16267646057472       -0.07876589917176
C            4.13296322447878        0.37497173555342       -0.61420079062515
C            4.03473483840369        1.84978132695683       -0.98463586542117
H            0.55345520286363        2.51056911520838        1.87551733272073
H            0.11024313045437        4.16762928125094        1.46748370513587
H            1.34115796401535        3.32669684265045        0.52304383916312
H           -0.81996414990918        3.38917575136620       -0.71065731979090
H           -0.34150365030485        1.73612256249295       -0.31946170964440
H           -2.27588353111221        3.40503383773668        1.34334501393917
H           -1.88441236609675        1.71202025841381        1.60382683650444
H           -4.06072498476043        1.95206079710147        0.51507752327144
H           -3.35835088276718        2.92974385866888       -0.77257864740640
H           -3.82091474280277        0.66568541126451       -1.54808365387480
H           -2.09867967821227        1.00996386064364       -1.62042449877652
H           -1.77273763943918       -0.22954150891198        0.51689089177312
H           -3.49418694498093       -0.61276836233390        0.55606141656716
H           -3.28170351166249       -1.83062435344474       -1.58763483133281
H           -1.58472612519610       -1.38942817758689       -1.69403470514941
H           -2.88606691841108       -3.19470867275102        0.38956893797018
H           -1.82980370749063       -3.69028245209044       -0.93168321123791
H           -0.61495222915295       -3.72872577047675        1.16328608921113
H           -1.05603453383588       -2.06871346549511        1.53117104054899
H            0.25935477202349       -1.27746272543656       -0.41905854074434
H            0.69048391724172       -2.94226558997869       -0.81334584793880
H            1.36551948852098       -1.52562325770545        1.80460701041930
H            1.83374196910806       -3.16805718594565        1.37042631165190
H            3.12485240652573       -2.23154129934805       -0.58552158630619
H            3.73615081758790       -1.76420068986757        1.00014359368578
H            2.04113486438369       -0.02495842193696       -0.84292648259119
H            2.51296000827855        0.41936401560396        0.79764582260125
H            4.42735783258302       -0.20230252676840       -1.49388576166002
H            4.90997837058844        0.24238625469909        0.14238282868923
H            3.27192796469904        2.00225611038163       -1.74551949027626
H            3.77087944124905        2.44354616245012       -0.11175789223517
H            4.98344769807594        2.21387153867750       -1.37219249845573
           -------------------------------------------------
          |                Final Singlepoint                |
           -------------------------------------------------

          ...................................................
          :                      SETUP                      :
          :.................................................:
          :  # basis functions                  92          :
          :  # atomic orbitals                  92          :
          :  # shells                           62          :
          :  # electrons                        92          :
          :  max. iterations                   250          :
          :  Hamiltonian                  GFN2-xTB          :
          :  restarted?                      false          :
          :  GBSA solvation                  false          :
          :  PC potential                    false          :
          :  electronic temp.          300.0000000     K    :
          :  accuracy                    1.0000000          :
          :  -> integral cutoff          0.2500000E+02      :
          :  -> integral neglect         0.1000000E-07      :
          :  -> SCF convergence          0.1000000E-05 Eh   :
          :  -> wf. convergence          0.1000000E-03 e    :
          :  Broyden damping             0.4000000          :
          ...................................................

 iter      E             dE          RMSdq      gap      omega  full diag
   1    -49.1946876 -0.491947E+02  0.162E-05   12.67       0.0  T
   2    -49.1946876 -0.895284E-12  0.911E-06   12.67    1601.3  T
   3    -49.1946876 -0.142109E-13  0.322E-06   12.67    4526.9  T

   *** convergence criteria satisfied after 3 iterations ***

         #    Occupation            Energy/Eh            Energy/eV
      -------------------------------------------------------------
         1        2.0000           -0.6235447             -16.9675
       ...           ...                  ...                  ...
        40        2.0000           -0.4229675             -11.5095
        41        2.0000           -0.4196744             -11.4199
        42        2.0000           -0.4151550             -11.2969
        43        2.0000           -0.4133092             -11.2467
        44        2.0000           -0.4117772             -11.2050
        45        2.0000           -0.4098638             -11.1530
        46        2.0000           -0.4085063             -11.1160 (HOMO)
        47                          0.0571928               1.5563 (LUMO)
        48                          0.0662481               1.8027
        49                          0.0786392               2.1399
        50                          0.0808739               2.2007
        51                          0.0997249               2.7137
       ...                                ...                  ...
        92                          0.3322703               9.0415
      -------------------------------------------------------------
                  HL-Gap            0.4656991 Eh           12.6723 eV
             Fermi-level           -0.1756568 Eh           -4.7799 eV

 SCC (total)                   0 d,  0 h,  0 min,  0.013 sec
 SCC setup                      ...        0 min,  0.000 sec (  2.719%)
 Dispersion                     ...        0 min,  0.000 sec (  1.250%)
 classical contributions        ...        0 min,  0.000 sec (  0.345%)
 integral evaluation            ...        0 min,  0.002 sec ( 11.267%)
 iterations                     ...        0 min,  0.005 sec ( 36.956%)
 molecular gradient             ...        0 min,  0.006 sec ( 44.215%)
 printout                       ...        0 min,  0.000 sec (  2.983%)

         :::::::::::::::::::::::::::::::::::::::::::::::::::::
         ::                     SUMMARY                     ::
         :::::::::::::::::::::::::::::::::::::::::::::::::::::
         :: total energy             -48.469896659890 Eh    ::
         :: gradient norm              0.000267621683 Eh/a0 ::
         :: HOMO-LUMO gap             12.672318855241 eV    ::
         ::.................................................::
         :: SCC energy               -49.194687588199 Eh    ::
         :: -> isotropic ES            0.007851148451 Eh    ::
         :: -> anisotropic ES          0.015467257614 Eh    ::
         :: -> anisotropic XC          0.028960746617 Eh    ::
         :: -> dispersion             -0.035011311418 Eh    ::
         :: repulsion energy           0.723913412336 Eh    ::
         :: add. restraining           0.000000000000 Eh    ::
         :: total charge              -0.000000000000 e     ::
         :::::::::::::::::::::::::::::::::::::::::::::::::::::

           ------------------------------------------------- 
          |                Numerical Hessian                |
           ------------------------------------------------- 
step length          :   0.00500
SCC accuracy         :   0.30000
Hessian scale factor :   1.00000
frozen atoms in %    :   0.00000    0
RMS gradient         :   0.00027
estimated CPU  time      0.57 min
estimated wall time      0.14 min

writing file <hessian>.

 projected vibrational frequencies (cm⁻¹)
eigval :       -0.00    -0.00    -0.00     0.00     0.00     0.00
eigval :       17.24    24.64    32.19    32.56    57.42    69.83
eigval :       80.51    93.88   111.19   128.09   134.66   167.12
eigval :      201.97   204.03   223.60   236.01   241.77   259.02
eigval :      276.74   298.01   303.87   385.79   406.91   408.74
eigval :      490.87   511.05   513.95   754.55   757.70   770.34
eigval :      783.25   802.97   822.04   834.21   873.08   893.09
eigval :      907.77   929.08   934.00   943.57   946.91   979.71
eigval :      997.90  1012.19  1037.60  1043.89  1065.53  1072.46
eigval :     1082.92  1092.26  1107.47  1114.82  1117.87  1128.97
eigval :     1148.90  1149.85  1150.90  1159.81  1168.46  1184.48
eigval :     1224.52  1227.36  1236.12  1252.68  1265.95  1272.05
eigval :     1276.54  1281.77  1282.34  1287.15  1288.57  1291.92
eigval :     1295.05  1303.80  1312.16  1348.35  1351.41  1359.27
eigval :     1359.72  1362.40  1373.86  1376.88  1378.78  1380.73
eigval :     1415.35  1416.48  1486.80  1489.25  1490.26  1492.13
eigval :     1493.20  1495.33  1497.64  1500.70  1502.69  1504.29
eigval :     1504.69  1505.69  1506.99  1508.71  1509.96  1510.79
eigval :     1512.25  2953.85  2954.15  2954.50  2955.42  2955.83
eigval :     2956.54  2959.19  2960.19  2960.22  2968.94  2970.11
eigval :     2970.74  2972.81  2974.36  2975.58  2976.82  2978.18
eigval :     2980.28  2981.35  2986.02  2986.67  2987.94  2989.49
eigval :     2993.77  3013.05  3018.52  3025.57  3027.04  3029.80
eigval :     3030.76  3035.71  3037.47
           -------------------------------------------------
          |                Property Printout                |
           -------------------------------------------------

    * Orbital Energies and Occupations

         #    Occupation            Energy/Eh            Energy/eV
      -------------------------------------------------------------
         1        2.0000           -0.6235447             -16.9675
       ...           ...                  ...                  ...
        34        2.0000           -0.4419037             -12.0248
        35        2.0000           -0.4358719             -11.8607
        36        2.0000           -0.4325886             -11.7713
        37        2.0000           -0.4301670             -11.7054
        38        2.0000           -0.4258828             -11.5889
        39        2.0000           -0.4233076             -11.5188
        40        2.0000           -0.4229675             -11.5095
        41        2.0000           -0.4196744             -11.4199
        42        2.0000           -0.4151550             -11.2969
        43        2.0000           -0.4133092             -11.2467
        44        2.0000           -0.4117772             -11.2050
        45        2.0000           -0.4098637             -11.1530
        46        2.0000           -0.4085063             -11.1160 (HOMO)
        47                          0.0571928               1.5563 (LUMO)
        48                          0.0662481               1.8027
        49                          0.0786392               2.1399
        50                          0.0808739               2.2007
        51                          0.0997249               2.7137
        52                          0.1031499               2.8069
        53                          0.1069857               2.9112
        54                          0.1154356               3.1412
        55                          0.1220776               3.3219
        56                          0.1232924               3.3550
        57                          0.1258207               3.4238
       ...                                ...                  ...
        92                          0.3322703               9.0415
      -------------------------------------------------------------
                  HL-Gap            0.4656992 Eh           12.6723 eV
             Fermi-level           -0.1756568 Eh           -4.7799 eV

     #   Z          covCN         q      C6AA      α(0)
     1   6 C        3.752    -0.100    22.475     6.761
     2   6 C        3.800    -0.052    21.499     6.602
     3   6 C        3.802    -0.058    21.612     6.619
     4   6 C        3.800    -0.057    21.607     6.618
     5   6 C        3.802    -0.057    21.603     6.617
     6   6 C        3.802    -0.060    21.645     6.624
     7   6 C        3.802    -0.057    21.602     6.617
     8   6 C        3.800    -0.057    21.602     6.617
     9   6 C        3.801    -0.057    21.599     6.617
    10   6 C        3.802    -0.059    21.627     6.621
    11   6 C        3.802    -0.057    21.602     6.617
    12   6 C        3.802    -0.058    21.617     6.620
    13   6 C        3.803    -0.058    21.618     6.619
    14   6 C        3.801    -0.053    21.524     6.605
    15   6 C        3.752    -0.101    22.480     6.761
    16   1 H        0.925     0.031     2.577     2.510
    17   1 H        0.925     0.030     2.585     2.514
    18   1 H        0.925     0.033     2.548     2.496
    19   1 H        0.924     0.027     2.628     2.535
    20   1 H        0.924     0.033     2.545     2.495
    21   1 H        0.924     0.027     2.625     2.534
    22   1 H        0.924     0.030     2.580     2.512
    23   1 H        0.924     0.028     2.622     2.532
    24   1 H        0.924     0.027     2.630     2.536
    25   1 H        0.924     0.025     2.660     2.550
    26   1 H        0.924     0.029     2.599     2.521
    27   1 H        0.925     0.041     2.433     2.439
    28   1 H        0.924     0.027     2.634     2.538
    29   1 H        0.924     0.025     2.658     2.550
    30   1 H        0.924     0.029     2.596     2.519
    31   1 H        0.924     0.028     2.621     2.532
    32   1 H        0.924     0.027     2.623     2.533
    33   1 H        0.924     0.025     2.652     2.546
    34   1 H        0.924     0.030     2.593     2.518
    35   1 H        0.925     0.038     2.482     2.464
    36   1 H        0.924     0.028     2.622     2.532
    37   1 H        0.924     0.028     2.614     2.528
    38   1 H        0.924     0.026     2.645     2.544
    39   1 H        0.924     0.028     2.610     2.526
    40   1 H        0.924     0.027     2.628     2.535
    41   1 H        0.924     0.031     2.575     2.509
    42   1 H        0.924     0.032     2.559     2.501
    43   1 H        0.924     0.027     2.624     2.533
    44   1 H        0.924     0.027     2.628     2.535
    45   1 H        0.925     0.033     2.548     2.496
    46   1 H        0.925     0.032     2.556     2.500
    47   1 H        0.925     0.032     2.565     2.505

 Mol. C6AA /au·bohr⁶  :      14704.280124
 Mol. C8AA /au·bohr⁸  :     307321.482066
 Mol. α(0) /au        :        180.156542


Wiberg/Mayer (AO) data.
largest (>0.10) Wiberg bond orders for each atom

 ---------------------------------------------------------------------------
     #   Z sym  total        # sym  WBO       # sym  WBO       # sym  WBO
 ---------------------------------------------------------------------------
     1   6 C    3.997 --     2 C    1.019    17 H    0.988    16 H    0.988
                            18 H    0.986
     2   6 C    3.998 --     1 C    1.019     3 C    1.009    19 H    0.979
                            20 H    0.976
     3   6 C    3.997 --     2 C    1.009     4 C    1.007    21 H    0.977
                            22 H    0.976
     4   6 C    3.997 --     3 C    1.007     5 C    1.007    23 H    0.978
                            24 H    0.978
     5   6 C    3.998 --     6 C    1.008     4 C    1.007    25 H    0.977
                            26 H    0.976
     6   6 C    3.997 --     5 C    1.008     7 C    1.008    28 H    0.978
                            27 H    0.970
     7   6 C    3.997 --     6 C    1.008     8 C    1.006    29 H    0.977
                            30 H    0.975
     8   6 C    3.997 --     7 C    1.006     9 C    1.006    32 H    0.978
                            31 H    0.978
     9   6 C    3.997 --    10 C    1.008     8 C    1.006    33 H    0.977
                            34 H    0.975
    10   6 C    3.997 --     9 C    1.008    11 C    1.008    36 H    0.978
                            35 H    0.971
    11   6 C    3.997 --    10 C    1.008    12 C    1.006    38 H    0.978
                            37 H    0.977
    12   6 C    3.997 --    13 C    1.008    11 C    1.006    39 H    0.978
                            40 H    0.977
    13   6 C    3.997 --    12 C    1.008    14 C    1.008    42 H    0.977
                            41 H    0.975
    14   6 C    3.998 --    15 C    1.019    13 C    1.008    43 H    0.979
                            44 H    0.978
    15   6 C    3.997 --    14 C    1.019    45 H    0.988    47 H    0.988
                            46 H    0.987
    16   1 H    0.999 --     1 C    0.988
    17   1 H    0.999 --     1 C    0.988
    18   1 H    0.999 --     1 C    0.986
    19   1 H    0.999 --     2 C    0.979
    20   1 H    0.999 --     2 C    0.976
    21   1 H    0.999 --     3 C    0.977
    22   1 H    0.999 --     3 C    0.976
    23   1 H    0.999 --     4 C    0.978
    24   1 H    0.999 --     4 C    0.978
    25   1 H    0.999 --     5 C    0.977
    26   1 H    0.999 --     5 C    0.976
    27   1 H    0.998 --     6 C    0.970
    28   1 H    0.999 --     6 C    0.978
    29   1 H    0.999 --     7 C    0.977
    30   1 H    0.999 --     7 C    0.975
    31   1 H    0.999 --     8 C    0.978
    32   1 H    0.999 --     8 C    0.978
    33   1 H    0.999 --     9 C    0.977
    34   1 H    0.999 --     9 C    0.975
    35   1 H    0.999 --    10 C    0.971
    36   1 H    0.999 --    10 C    0.978
    37   1 H    0.999 --    11 C    0.977
    38   1 H    0.999 --    11 C    0.978
    39   1 H    0.999 --    12 C    0.978
    40   1 H    0.999 --    12 C    0.977
    41   1 H    0.999 --    13 C    0.975
    42   1 H    0.999 --    13 C    0.977
    43   1 H    0.999 --    14 C    0.979
    44   1 H    0.999 --    14 C    0.978
    45   1 H    0.999 --    15 C    0.988
    46   1 H    0.999 --    15 C    0.987
    47   1 H    0.999 --    15 C    0.988
 ---------------------------------------------------------------------------

Topologies differ in total number of bonds
Writing topology from bond orders to xtbtopo.mol

molecular dipole:
                 x           y           z       tot (Debye)
 q only:        0.019       0.025       0.005
   full:        0.014       0.019       0.005       0.061
molecular quadrupole (traceless):
                xx          xy          yy          xz          yz          zz
 q only:       -0.262       0.228      -0.081      -0.134      -0.078       0.343
  q+dip:       -0.801      -0.645      -0.411      -0.592       0.443       1.212
   full:       -0.443      -0.239      -0.192      -0.326       0.200       0.635

           -------------------------------------------------
          |                Geometry Summary                 |
           -------------------------------------------------

      molecular mass/u    :      212.4151425
   center of mass at/Å    :        0.0003876      -0.0022516      -0.0016933
  moments of inertia/u·Å² :        0.1057756E+04   0.1480185E+04   0.2291504E+04
rotational constants/cm⁻¹ :        0.1593716E-01   0.1138887E-01   0.7356579E-02

 * 46 selected distances

     #   Z          #   Z                                           value/Å
     1   6 C        2   6 C                                       1.5239322
     2   6 C        3   6 C                                       1.5272469
     3   6 C        4   6 C                                       1.5307063
     4   6 C        5   6 C                                       1.5300519
     5   6 C        6   6 C                                       1.5266147
     6   6 C        7   6 C                                       1.5268596
     7   6 C        8   6 C                                       1.5305474
     8   6 C        9   6 C                                       1.5309615 (max)
     9   6 C       10   6 C                                       1.5268318
    10   6 C       11   6 C                                       1.5270270
    11   6 C       12   6 C                                       1.5293690
    12   6 C       13   6 C                                       1.5276470
    13   6 C       14   6 C                                       1.5267249
    14   6 C       15   6 C                                       1.5237896
     1   6 C       16   1 H                                       1.0883441
     1   6 C       17   1 H                                       1.0881026
     1   6 C       18   1 H                                       1.0876568
     2   6 C       19   1 H                                       1.0925630
     2   6 C       20   1 H                                       1.0909984
     3   6 C       21   1 H                                       1.0933821
     3   6 C       22   1 H                                       1.0916890
     4   6 C       23   1 H                                       1.0930492
     4   6 C       24   1 H                                       1.0932275
     5   6 C       25   1 H                                       1.0932579
     5   6 C       26   1 H                                       1.0919651
     6   6 C       27   1 H                                       1.0887144
     6   6 C       28   1 H                                       1.0925159
     7   6 C       29   1 H                                       1.0931907
     7   6 C       30   1 H                                       1.0919384
     8   6 C       31   1 H                                       1.0929513
     8   6 C       32   1 H                                       1.0930577
     9   6 C       33   1 H                                       1.0932719
     9   6 C       34   1 H                                       1.0918329
    10   6 C       35   1 H                                       1.0891547
    10   6 C       36   1 H                                       1.0926250
    11   6 C       37   1 H                                       1.0931285
    11   6 C       38   1 H                                       1.0930183
    12   6 C       39   1 H                                       1.0926786
    12   6 C       40   1 H                                       1.0931408
    13   6 C       41   1 H                                       1.0914297
    13   6 C       42   1 H                                       1.0927056
    14   6 C       43   1 H                                       1.0925931
    14   6 C       44   1 H                                       1.0925889
    15   6 C       45   1 H                                       1.0881484
    15   6 C       46   1 H                                       1.0881602
    15   6 C       47   1 H                                       1.0875744 (min)

 * 2 distinct bonds (by element types)

   Z      Z             #   av. dist./Å        max./Å        min./Å
   1 H    6 C          32     1.0915205     1.0933821     1.0875744
   6 C    6 C          14     1.5277364     1.5309615     1.5237896

           -------------------------------------------------
          |               Frequency Printout                |
           -------------------------------------------------
 projected vibrational frequencies (cm⁻¹)
eigval :       -0.00    -0.00    -0.00     0.00     0.00     0.00
eigval :       17.24    24.64    32.19    32.56    57.42    69.83
eigval :       80.51    93.88   111.19   128.09   134.66   167.12
eigval :      201.97   204.03   223.60   236.01   241.77   259.02
eigval :      276.74   298.01   303.87   385.79   406.91   408.74
eigval :      490.87   511.05   513.95   754.55   757.70   770.34
eigval :      783.25   802.97   822.04   834.21   873.08   893.09
eigval :      907.77   929.08   934.00   943.57   946.91   979.71
eigval :      997.90  1012.19  1037.60  1043.89  1065.53  1072.46
eigval :     1082.92  1092.26  1107.47  1114.82  1117.87  1128.97
eigval :     1148.90  1149.85  1150.90  1159.81  1168.46  1184.48
eigval :     1224.52  1227.36  1236.12  1252.68  1265.95  1272.05
eigval :     1276.54  1281.77  1282.34  1287.15  1288.57  1291.92
eigval :     1295.05  1303.80  1312.16  1348.35  1351.41  1359.27
eigval :     1359.72  1362.40  1373.86  1376.88  1378.78  1380.73
eigval :     1415.35  1416.48  1486.80  1489.25  1490.26  1492.13
eigval :     1493.20  1495.33  1497.64  1500.70  1502.69  1504.29
eigval :     1504.69  1505.69  1506.99  1508.71  1509.96  1510.79
eigval :     1512.25  2953.85  2954.15  2954.50  2955.42  2955.83
eigval :     2956.54  2959.19  2960.19  2960.22  2968.94  2970.11
eigval :     2970.74  2972.81  2974.36  2975.58  2976.82  2978.18
eigval :     2980.28  2981.35  2986.02  2986.67  2987.94  2989.49
eigval :     2993.77  3013.05  3018.52  3025.57  3027.04  3029.80
eigval :     3030.76  3035.71  3037.47
 reduced masses (amu)
   1: 10.30   2: 10.18   3: 10.09   4: 10.18   5: 10.17   6:  9.85   7:  9.02   8:  8.44
   9:  9.67  10:  9.46  11:  6.31  12:  8.68  13:  6.37  14:  6.89  15:  8.23  16:  7.47
  17:  8.36  18:  7.87  19:  6.95  20:  7.72  21:  4.25  22:  3.44  23:  5.10  24:  6.55
  25:  8.71  26:  7.96  27:  8.48  28:  8.41  29:  8.50  30:  8.64  31:  8.74  32:  8.36
  33:  8.48  34:  2.16  35:  2.39  36:  2.11  37:  2.27  38:  2.99  39:  3.00  40:  3.82
  41:  5.12  42:  6.30  43:  5.25  44:  5.05  45:  5.99  46:  5.35  47:  5.82  48:  6.14
  49:  7.19  50:  4.66  51:  5.47  52:  6.24  53:  5.98  54:  4.95  55:  8.22  56:  8.48
  57:  7.15  58:  5.91  59:  7.06  60:  7.38  61:  7.89  62:  8.60  63:  7.87  64:  7.45
  65:  5.91  66:  6.17  67:  4.71  68:  4.40  69:  4.26  70:  3.71  71:  3.67  72:  3.53
  73:  2.67  74:  2.27  75:  2.91  76:  2.08  77:  2.55  78:  2.33  79:  2.47  80:  2.47
  81:  3.13  82:  4.24  83:  4.30  84:  4.34  85:  4.53  86:  4.62  87:  5.11  88:  5.31
  89:  5.39  90:  5.36  91:  3.17  92:  3.17  93:  1.97  94:  1.88  95:  1.87  96:  1.90
  97:  1.95  98:  1.96  99:  1.96 100:  1.81 101:  1.62 102:  1.84 103:  1.82 104:  1.66
 105:  1.82 106:  1.81 107:  1.70 108:  1.67 109:  1.90 110:  1.94 111:  1.94 112:  1.91
 113:  1.90 114:  1.85 115:  1.84 116:  1.90 117:  1.92 118:  1.91 119:  1.73 120:  1.69
 121:  1.74 122:  1.69 123:  1.52 124:  1.58 125:  1.57 126:  1.57 127:  1.56 128:  1.72
 129:  1.63 130:  1.67 131:  1.60 132:  1.64 133:  1.62 134:  1.67 135:  1.68 136:  1.94
 137:  1.96 138:  1.82 139:  1.85 140:  1.39 141:  1.35
 IR intensities (km·mol⁻¹)
   1:  0.00   2:  0.00   3:  0.00   4:  0.00   5:  0.00   6:  0.00   7:  0.00   8:  0.00
   9:  0.01  10:  0.01  11:  0.00  12:  0.01  13:  0.01  14:  0.00  15:  0.03  16:  0.02
  17:  0.06  18:  0.15  19:  0.14  20:  0.06  21:  0.08  22:  0.01  23:  0.10  24:  0.26
  25:  0.01  26:  0.20  27:  0.01  28:  0.20  29:  0.07  30:  0.07  31:  0.42  32:  1.16
  33:  1.27  34: 11.42  35: 21.51  36: 11.27  37:  1.21  38:  1.77  39:  0.73  40:  0.18
  41:  0.67  42:  0.71  43:  1.53  44:  1.65  45:  1.67  46:  1.17  47:  4.19  48:  1.75
  49:  1.89  50:  0.28  51:  0.13  52:  0.99  53:  0.25  54:  1.34  55:  1.14  56:  0.04
  57:  0.09  58:  0.14  59:  1.00  60:  0.23  61:  0.25  62:  0.34  63:  0.24  64:  0.79
  65:  1.96  66:  0.77  67:  1.41  68:  1.24  69:  0.56  70:  0.09  71:  0.01  72:  0.47
  73:  0.55  74:  0.50  75:  0.27  76:  0.06  77:  0.08  78:  0.59  79:  1.00  80:  0.07
  81:  0.74  82:  0.07  83:  0.07  84:  0.13  85:  2.34  86:  3.19  87:  0.21  88:  3.97
  89:  3.33  90:  0.69  91:  0.53  92:  0.40  93:  0.20  94:  0.24  95:  0.34  96:  0.34
  97:  0.22  98:  0.03  99:  0.04 100:  0.71 101:  1.90 102:  0.78 103:  0.18 104:  0.54
 105:  1.48 106:  0.93 107:  2.15 108:  2.16 109:  0.78 110:  2.89 111: 15.99 112: 24.10
 113: 16.77 114:  6.83 115:  8.48 116: 27.81 117: 14.00 118: 11.64 119:  4.49 120: 37.01
 121:  7.43 122: 13.58 123: 33.40 124:120.94 125: 22.37 126:131.03 127: 10.86 128: 80.06
 129: 41.51 130: 33.32 131: 66.15 132:159.25 133:150.26 134: 79.81 135: 54.95 136: 66.72
 137: 71.53 138: 89.82 139: 21.74 140: 59.05 141: 12.66
 Raman intensities (amu)
   1:  0.00   2:  0.00   3:  0.00   4:  0.00   5:  0.00   6:  0.00   7:  0.00   8:  0.00
   9:  0.00  10:  0.00  11:  0.00  12:  0.00  13:  0.00  14:  0.00  15:  0.00  16:  0.00
  17:  0.00  18:  0.00  19:  0.00  20:  0.00  21:  0.00  22:  0.00  23:  0.00  24:  0.00
  25:  0.00  26:  0.00  27:  0.00  28:  0.00  29:  0.00  30:  0.00  31:  0.00  32:  0.00
  33:  0.00  34:  0.00  35:  0.00  36:  0.00  37:  0.00  38:  0.00  39:  0.00  40:  0.00
  41:  0.00  42:  0.00  43:  0.00  44:  0.00  45:  0.00  46:  0.00  47:  0.00  48:  0.00
  49:  0.00  50:  0.00  51:  0.00  52:  0.00  53:  0.00  54:  0.00  55:  0.00  56:  0.00
  57:  0.00  58:  0.00  59:  0.00  60:  0.00  61:  0.00  62:  0.00  63:  0.00  64:  0.00
  65:  0.00  66:  0.00  67:  0.00  68:  0.00  69:  0.00  70:  0.00  71:  0.00  72:  0.00
  73:  0.00  74:  0.00  75:  0.00  76:  0.00  77:  0.00  78:  0.00  79:  0.00  80:  0.00
  81:  0.00  82:  0.00  83:  0.00  84:  0.00  85:  0.00  86:  0.00  87:  0.00  88:  0.00
  89:  0.00  90:  0.00  91:  0.00  92:  0.00  93:  0.00  94:  0.00  95:  0.00  96:  0.00
  97:  0.00  98:  0.00  99:  0.00 100:  0.00 101:  0.00 102:  0.00 103:  0.00 104:  0.00
 105:  0.00 106:  0.00 107:  0.00 108:  0.00 109:  0.00 110:  0.00 111:  0.00 112:  0.00
 113:  0.00 114:  0.00 115:  0.00 116:  0.00 117:  0.00 118:  0.00 119:  0.00 120:  0.00
 121:  0.00 122:  0.00 123:  0.00 124:  0.00 125:  0.00 126:  0.00 127:  0.00 128:  0.00
 129:  0.00 130:  0.00 131:  0.00 132:  0.00 133:  0.00 134:  0.00 135:  0.00 136:  0.00
 137:  0.00 138:  0.00 139:  0.00 140:  0.00 141:  0.00
 output can be read by thermo (or use thermo option).
 writing <g98.out> molden fake output.
 recommended (thermochemical) frequency scaling factor: 1.0
           -------------------------------------------------
          |             Thermodynamic Functions             |
           -------------------------------------------------

Molecule has no symmetry elements
It seems to be the C1 point group
c1  symmetry found (for desy threshold:  0.10E+00) used in thermo

          ...................................................
          :                      SETUP                      :
          :.................................................:
          :  # frequencies                         135      :
          :  # imaginary freq.                       0      :
          :  linear?                             false      :
          :  only rotor calc.                    false      :
          :  symmetry                               c1      :
          :  rotational number                       1      :
          :  scaling factor                  1.0000000      :
          :  rotor cutoff                   50.0000000 cm⁻¹ :
          :  imag. cutoff                  -20.0000000 cm⁻¹ :
          :.................................................:

    mode    ω/cm⁻¹     T·S(HO)/kcal·mol⁻¹    T·S(FR)/kcal·mol⁻¹   T·S(vib)
   ------------------------------------------------------------------------
       1     17.24    -2.06585 (  1.39%)    -1.37178 ( 98.61%)    -1.38145
       2     24.64    -1.85443 (  5.57%)    -1.26603 ( 94.43%)    -1.29881
       3     32.19    -1.69628 ( 14.67%)    -1.18687 ( 85.33%)    -1.26159
       4     32.56    -1.68961 ( 15.24%)    -1.18352 ( 84.76%)    -1.26066
       5     57.42    -1.35474 ( 63.50%)    -1.01549 ( 36.50%)    -1.23091
       6     69.83    -1.23976 ( 79.18%)    -0.95756 ( 20.82%)    -1.18102
       7     80.51    -1.15634 ( 87.05%)    -0.91539 ( 12.95%)    -1.12514
       8     93.88    -1.06666 ( 92.55%)    -0.86989 (  7.45%)    -1.05200
       9    111.19    -0.96840 ( 96.07%)    -0.81976 (  3.93%)    -0.96256
      10    128.09    -0.88683 ( 97.73%)    -0.77784 (  2.27%)    -0.88436
      11    134.66    -0.85820 ( 98.13%)    -0.76304 (  1.87%)    -0.85643
      12    167.12    -0.73572 ( 99.21%)    -0.69906 (  0.79%)    -0.73543
      13    201.97    -0.63060 ( 99.63%)    -0.64295 (  0.37%)    -0.63065
      14    204.03    -0.62506 ( 99.64%)    -0.63995 (  0.36%)    -0.62512
      15    223.60    -0.57536 ( 99.75%)    -0.61282 (  0.25%)    -0.57545
      16    236.01    -0.54644 ( 99.80%)    -0.59682 (  0.20%)    -0.54654
      17    241.77    -0.53364 ( 99.82%)    -0.58967 (  0.18%)    -0.53374
      18    259.02    -0.49742 ( 99.86%)    -0.56926 (  0.14%)    -0.49752
      19    276.74    -0.46325 ( 99.89%)    -0.54966 (  0.11%)    -0.46334
      20    298.01    -0.42577 ( 99.92%)    -0.52772 (  0.08%)    -0.42585
   ------------------------------------------------------------------------

   temp. (K)  partition function   enthalpy   heat capacity  entropy
                                   cal/mol     cal/K/mol   cal/K/mol   J/K/mol
 298.15  VIB  0.110E+10            10748.970     61.453     69.570
         ROT  0.458E+07              888.752      2.981     33.458
         INT  0.503E+16            11637.722     64.434    103.028
         TR   0.300E+28             1481.254      4.968     41.945
         TOT                       13118.9761    69.4020   144.9727   606.5659

       T/K    H(0)-H(T)+PV         H(T)/Eh          T*S/Eh         G(T)/Eh
   ------------------------------------------------------------------------
    298.15    0.209064E-01    0.462720E+00    0.688812E-01    0.393839E+00
   ------------------------------------------------------------------------

         :::::::::::::::::::::::::::::::::::::::::::::::::::::
         ::                  THERMODYNAMIC                  ::
         :::::::::::::::::::::::::::::::::::::::::::::::::::::
         :: total free energy         -48.076058058376 Eh   ::
         ::.................................................::
         :: total energy              -48.469896659890 Eh   ::
         :: zero point energy           0.441813404647 Eh   ::
         :: G(RRHO) w/o ZPVE           -0.047974803132 Eh   ::
         :: G(RRHO) contrib.            0.393838601514 Eh   ::
         :::::::::::::::::::::::::::::::::::::::::::::::::::::
 
 normal mode %tage of torsion character
   1:  0.00   2:  0.00   3:  0.00   4:  0.00   5:  0.00   6:  0.00   7:  0.36   8:  0.41
   9:  0.34  10:  0.36  11:  0.58  12:  0.40  13:  0.63  14:  0.63  15:  0.56  16:  0.63
  17:  0.48  18:  0.51  19:  0.58  20:  0.56  21:  0.72  22:  0.81  23:  0.76  24:  0.63
  25:  0.45  26:  0.38  27:  0.37  28:  0.26  29:  0.15  30:  0.12  31:  0.12  32:  0.21
  33:  0.18  34:  0.59  35:  0.56  36:  0.50  37:  0.44  38:  0.51  39:  0.49  40:  0.49
  41:  0.42  42:  0.29  43:  0.40  44:  0.31  45:  0.19  46:  0.41  47:  0.20  48:  0.23
  49:  0.26  50:  0.36  51:  0.25  52:  0.38  53:  0.20  54:  0.16  55:  0.21  56:  0.09
  57:  0.21  58:  0.35  59:  0.17  60:  0.11  61:  0.08  62:  0.08  63:  0.31  64:  0.39
  65:  0.18  66:  0.40  67:  0.46  68:  0.41  69:  0.37  70:  0.23  71:  0.27  72:  0.23
  73:  0.15  74:  0.25  75:  0.18  76:  0.12  77:  0.12  78:  0.14  79:  0.10  80:  0.09
  81:  0.06  82:  0.08  83:  0.10  84:  0.07  85:  0.09  86:  0.08  87:  0.07  88:  0.06
  89:  0.06  90:  0.06  91:  0.00  92:  0.00  93:  0.61  94:  0.65  95:  0.65  96:  0.66
  97:  0.65  98:  0.66  99:  0.61 100:  0.67 101:  0.83 102:  0.63 103:  0.65 104:  0.78
 105:  0.69 106:  0.73 107:  0.76 108:  0.77 109:  0.67 110:  0.30 111:  0.27 112:  0.28
 113:  0.29 114:  0.24 115:  0.25 116:  0.26 117:  0.19 118:  0.18 119:  0.17 120:  0.08
 121:  0.04 122:  0.05 123:  0.01 124:  0.01 125:  0.01 126:  0.01 127:  0.02 128:  0.01
 129:  0.02 130:  0.02 131:  0.02 132:  0.02 133:  0.07 134:  0.07 135:  0.08 136:  0.07
 137:  0.05 138:  0.03 139:  0.03 140:  0.00 141:  0.00
 recommended # of modes for mode following           4

optimized geometry written to: xtbopt.xyz


           -------------------------------------------------
          | TOTAL ENERGY              -48.469896659890 Eh   |
          | TOTAL ENTHALPY            -48.007176836152 Eh   |
          | TOTAL FREE ENERGY         -48.076058058376 Eh   |
          | GRADIENT NORM               0.000267618340 Eh/α |
          | HOMO-LUMO GAP              12.672318910947 eV   |
           -------------------------------------------------

------------------------------------------------------------------------
 * finished run on 2024/04/23 at 12:10:43.802     
------------------------------------------------------------------------
 total:
 * wall-time:     0 d,  0 h,  0 min,  2.769 sec
 *  cpu-time:     0 d,  0 h,  0 min, 10.615 sec
 * ratio c/w:     3.834 speedup
 SCF:
 * wall-time:     0 d,  0 h,  0 min,  0.076 sec
 *  cpu-time:     0 d,  0 h,  0 min,  0.261 sec
 * ratio c/w:     3.451 speedup
 ANC optimizer:
 * wall-time:     0 d,  0 h,  0 min,  0.391 sec
 *  cpu-time:     0 d,  0 h,  0 min,  1.491 sec
 * ratio c/w:     3.815 speedup
 analytical hessian:
 * wall-time:     0 d,  0 h,  0 min,  2.179 sec
 *  cpu-time:     0 d,  0 h,  0 min,  8.540 sec
 * ratio c/w:     3.919 speedup

