47
 energy: -48.466230909212 gnorm: 0.035451188926 xtb: 6.6.1 (8d0f1dd)
C            0.49990900000000        3.03178500000000        1.12788600000000
C           -0.61288800000000        2.66483300000000        0.15854400000000
C           -1.94802800000000        2.41625800000000        0.86314500000000
C           -3.10369200000000        2.09586500000000       -0.09164600000000
C           -2.87139700000000        0.86184400000000       -0.96854300000000
C           -2.63840800000000       -0.41974500000000       -0.16938300000000
C           -2.33989200000000       -1.62828600000000       -1.05637200000000
C           -2.01944500000000       -2.90366000000000       -0.26951300000000
C           -0.85707700000000       -2.75382800000000        0.71879700000000
C            0.43535200000000       -2.25368400000000        0.07359300000000
C            1.57702400000000       -2.08255700000000        1.07579600000000
C            2.86477500000000       -1.54820600000000        0.44219000000000
C            2.74371800000000       -0.10871200000000       -0.06176700000000
C            4.03792100000000        0.41826600000000       -0.68293900000000
C            3.91665300000000        1.85726600000000       -1.15970700000000
H            0.66823400000000        2.23523100000000        1.85584400000000
H            0.25244600000000        3.93421300000000        1.69086400000000
H            1.44733800000000        3.21530600000000        0.61575300000000
H           -0.74040300000000        3.45788800000000       -0.59071100000000
H           -0.32577000000000        1.77416100000000       -0.41565400000000
H           -2.20023400000000        3.29647200000000        1.46980600000000
H           -1.82762000000000        1.60496800000000        1.59120000000000
H           -4.02810200000000        1.95551500000000        0.48441200000000
H           -3.29227500000000        2.96956100000000       -0.72978100000000
H           -3.72247200000000        0.71396500000000       -1.64668200000000
H           -2.01448100000000        1.03546000000000       -1.63079300000000
H           -1.80510500000000       -0.26502900000000        0.52439900000000
H           -3.50660100000000       -0.62802500000000        0.46807700000000
H           -3.18964000000000       -1.80215500000000       -1.73000000000000
H           -1.50308500000000       -1.38640900000000       -1.72326100000000
H           -2.91911400000000       -3.22975300000000        0.26917700000000
H           -1.79236700000000       -3.71820100000000       -0.97028200000000
H           -0.66376900000000       -3.71127400000000        1.22081700000000
H           -1.14324500000000       -2.07022300000000        1.52758900000000
H            0.24702600000000       -1.29816000000000       -0.42778300000000
H            0.74116400000000       -2.94022800000000       -0.72568700000000
H            1.25855100000000       -1.40654000000000        1.87931700000000
H            1.76783600000000       -3.04484300000000        1.56932300000000
H            3.16362400000000       -2.20211000000000       -0.38669400000000
H            3.69077300000000       -1.60485800000000        1.16392100000000
H            1.93437200000000       -0.03309800000000       -0.79778800000000
H            2.43813100000000        0.54514700000000        0.76465600000000
H            4.33023200000000       -0.23370800000000       -1.51747700000000
H            4.85464900000000        0.32854100000000        0.04619900000000
H            3.11789500000000        1.96328100000000       -1.89727300000000
H            3.68158800000000        2.52921500000000       -0.33158000000000
H            4.83988700000000        2.21711800000000       -1.62088500000000
47
 energy: -48.469045357272 gnorm: 0.015523450890 xtb: 6.6.1 (8d0f1dd)
C            0.49217982531155        3.03313585060503        1.13082101774296
C           -0.61399037606618        2.66469984457642        0.15509021565653
C           -1.94442186867199        2.41320026985206        0.86366006979983
C           -3.09636295092268        2.09001939049354       -0.09132477105381
C           -2.86752455082825        0.85766006801148       -0.96919741155579
C           -2.63774497111882       -0.41969339313884       -0.16496918672611
C           -2.33777196011606       -1.62295418743850       -1.05605520989942
C           -2.01376228993526       -2.89487121583931       -0.26793563807375
C           -0.85235706591928       -2.74827549493974        0.71969249634701
C            0.43703285450654       -2.25158802647818        0.06861275053586
C            1.57475190724797       -2.07804154137482        1.07273945944593
C            2.86051824544288       -1.54665710234684        0.43566635208665
C            2.74052973424291       -0.10606074425140       -0.06125966000707
C            4.03801820096823        0.41190748914222       -0.67929363549816
C            3.91217222797804        1.85124766960832       -1.15529201249022
H            0.65630479751607        2.23161051942604        1.85136003388457
H            0.23935827737949        3.93631796584470        1.68612905995526
H            1.43013407978868        3.21194245933664        0.60603260971243
H           -0.74113766722576        3.46705024709834       -0.58000762303437
H           -0.31722506671898        1.76878093005543       -0.39826458291943
H           -2.20824841010381        3.30302271941682        1.44653704262835
H           -1.82287216644909        1.59976835027562        1.58509720716530
H           -4.01000685997899        1.94420217127707        0.49565094554155
H           -3.27392445019548        2.95642582727649       -0.73827307360293
H           -3.73341826963438        0.71977158632641       -1.62648747546523
H           -2.00863198589674        1.03218339837105       -1.62452194710586
H           -1.79533072252169       -0.26214125396565        0.51062745789151
H           -3.51451381793859       -0.62897975297887        0.45695519279674
H           -3.19738994620632       -1.81367733276628       -1.70833607946216
H           -1.49971310401718       -1.38233044232420       -1.71751904817163
H           -2.90643085155829       -3.21200912866280        0.28254104868191
H           -1.78087228062514       -3.69735900607638       -0.97668175100363
H           -0.66548915142519       -3.71695162094896        1.19675918630282
H           -1.13973485871253       -2.06264659520909        1.52273654658657
H            0.24502837308030       -1.29155387127279       -0.41404551007025
H            0.74380046941381       -2.95059749253119       -0.71671979883844
H            1.25642236162904       -1.39449191395817        1.86744316178587
H            1.77868522492562       -3.04285089341386        1.55040585550797
H            3.14862301134545       -2.19733398494319       -0.39695240667522
H            3.67205059281033       -1.59764077763101        1.17023458403348
H            1.94479026439813       -0.03774712510969       -0.80857266972470
H            2.45097215612172        0.54227584527181        0.77220527513379
H            4.31753737802742       -0.22958083330926       -1.52249253306796
H            4.84682412302136        0.33756692918426        0.05596994993401
H            3.11628585151295        1.94912672390327       -1.89376392298955
H            3.68186199422488        2.51641661202475       -0.32313825744629
H            4.83898169189330        2.19656786353123       -1.61275931427491
47
 energy: -48.469492419969 gnorm: 0.002672168640 xtb: 6.6.1 (8d0f1dd)
C            0.48942901124653        3.03653126177123        1.13361860514561
C           -0.61391015058661        2.66436624301600        0.15323059742407
C           -1.94281647081888        2.41375686418716        0.86227835563488
C           -3.09409996713874        2.08750483541143       -0.09166956460844
C           -2.86823385027331        0.85497750606574       -0.96978148090727
C           -2.63701212409095       -0.41955001119615       -0.16290029767824
C           -2.33949769034178       -1.62109306237388       -1.05570107568748
C           -2.01052953878419       -2.89119348753509       -0.26696697086573
C           -0.84790690769197       -2.74723761811259        0.71934953988431
C            0.43822658783108       -2.24913029413334        0.06473417293599
C            1.57387374246965       -2.07663444252109        1.07057079127014
C            2.85905987019371       -1.54570331396387        0.43255286866667
C            2.73856921916242       -0.10493191577539       -0.06147779283658
C            4.03894930143468        0.40704902181408       -0.67609617332767
C            3.91148830270687        1.84817023737183       -1.15239452122236
H            0.64815392319413        2.23360233119890        1.85131372315700
H            0.23062641262748        3.93875072311547        1.68427296297198
H            1.42335479986258        3.21341078235331        0.60459479702595
H           -0.74123446256311        3.46893427410208       -0.57526362439137
H           -0.31079351576064        1.76737146501716       -0.38913484818913
H           -2.21255274851285        3.30810828607236        1.43129460518183
H           -1.81937394852591        1.60248025799453        1.58224133385815
H           -4.00106576857118        1.93817705703132        0.50057447448022
H           -3.26539627822632        2.94899655198501       -0.74299243732117
H           -3.74145614104935        0.72202181264741       -1.61459570522794
H           -2.01027184207067        1.02771734872149       -1.62295402890479
H           -1.79126076846213       -0.26063366993799        0.50367318338236
H           -3.51616433075361       -0.62892957107488        0.45145925972247
H           -3.20438331109436       -1.82114013730799       -1.69449398349162
H           -1.50434010705425       -1.37932571263755       -1.71649608497992
H           -2.89806453714151       -3.20295530939971        0.29031738860259
H           -1.77458041051303       -3.68636443085536       -0.97935916792461
H           -0.66384822902369       -3.72103391124929        1.18196353050389
H           -1.13292599808367       -2.06246651527933        1.52071995624201
H            0.24468313315834       -1.28858590337343       -0.41022582782053
H            0.74510151049886       -2.95371086779514       -0.71236202561208
H            1.25564677184076       -1.38952434411455        1.85938750686743
H            1.78432209928092       -3.04104897759826        1.54094057892423
H            3.13949812448168       -2.19284080761834       -0.40259348571844
H            3.66386555993350       -1.59554518177171        1.17116844584896
H            1.95065908816792       -0.03650497640471       -0.81374040254506
H            2.45793008568201        0.53949913373274        0.77502431929119
H            4.31213828151359       -0.22984068505065       -1.52133320529341
H            4.84234300039674        0.33926096061600        0.06172933132178
H            3.11595817809071        1.94012786587258       -1.88950107208210
H            3.68196259724206        2.50796974184385       -0.31791403225421
H            4.83986749611651        2.18600758513861       -1.60795851945356
47
 energy: -48.469525225747 gnorm: 0.000983496172 xtb: 6.6.1 (8d0f1dd)
C            0.48860903028544        3.03921899998500        1.13497179444093
C           -0.61342362123465        2.66494887212056        0.15226604572845
C           -1.94251871239776        2.41531962482018        0.86122033889764
C           -3.09419070532921        2.08755978936150       -0.09230716894324
C           -2.86990283367326        0.85402244701580       -0.96993666205326
C           -2.63773141634618       -0.41976128222532       -0.16193763866543
C           -2.34169048605015       -1.62147968305953       -1.05515317327468
C           -2.01025486025337       -2.89147949432334       -0.26666411326959
C           -0.84609515921054       -2.74809300069814        0.71836189577684
C            0.43913339783194       -2.24914194349217        0.06275183841100
C            1.57392346803437       -2.07663610230363        1.06962786045733
C            2.85921737766861       -1.54589814382043        0.43117948961934
C            2.73880660801501       -0.10456089655855       -0.06091648643886
C            4.04032593025144        0.40558184751589       -0.67455299585409
C            3.91293250951649        1.84737638885367       -1.15125841405046
H            0.64560692813547        2.23702193607637        1.85353116999738
H            0.22730562965434        3.94146651302046        1.68390779862712
H            1.42299837409419        3.21614506036017        0.60738201260549
H           -0.73992908822659        3.46828925801499       -0.57708407251374
H           -0.30848031648604        1.76749216158125       -0.38754384047655
H           -2.21292233526520        3.31097509292416        1.42697980262920
H           -1.81915631338397        1.60619103630704        1.58324085142131
H           -4.00008896550897        1.93811875657608        0.50072212555417
H           -3.26539787963908        2.94807206047459       -0.74418948413214
H           -3.74471568655072        0.72101030375628       -1.61173583580109
H           -2.01353829980119        1.02563789035311       -1.62502092155043
H           -1.79094983886571       -0.26042533630492        0.50276301291978
H           -3.51573720208893       -0.62865658810046        0.45346469688313
H           -3.20840360227342       -1.82309718112458       -1.69007436347585
H           -1.50925511032720       -1.37917501920608       -1.71876262596992
H           -2.89642418077300       -3.20297917251869        0.29202285961943
H           -1.77432690729860       -3.68565778120533       -0.97946402463388
H           -0.66121357261088       -3.72266114428731        1.17773993533466
H           -1.12943095242107       -2.06515353057033        1.52150842420660
H            0.24508829235101       -1.28873468090077       -0.41156059258127
H            0.74623631944306       -2.95324497229005       -0.71406796251939
H            1.25549807469005       -1.38941113234866        1.85778272427456
H            1.78437796679695       -3.04075255999836        1.53942022213350
H            3.13812646969618       -2.19194977206135       -0.40483658575706
H            3.66403058165265       -1.59640870236554        1.16901060376201
H            1.95196604278895       -0.03451681699045       -0.81359181583093
H            2.45875503934233        0.53906456549675        0.77588629768804
H            4.31327295665116       -0.23143484558846       -1.51918124372123
H            4.84248185391759        0.33783502291716        0.06389830147786
H            3.11697562809253        1.93804121538202       -1.88770996504367
H            3.68291016890380        2.50599670175634       -0.31631820512983
H            4.84118739820212        2.18479123767304       -1.60666791077917
47
 energy: -48.469583005691 gnorm: 0.004438401414 xtb: 6.6.1 (8d0f1dd)
C            0.48452179629041        3.05102648574053        1.13967818391728
C           -0.61103995852018        2.66729116915415        0.14930326351107
C           -1.94228259048656        2.42279781625933        0.85591465711123
C           -3.09550911794355        2.08858176356452       -0.09512905637980
C           -2.87714431384559        0.85049559732221       -0.96929953273409
C           -2.63984733803762       -0.42059973615388       -0.15770229702076
C           -2.35191783924097       -1.62425994283917       -1.05169719797924
C           -2.01037194861874       -2.89409777464262       -0.26550999922344
C           -0.83978956466045       -2.75327186962934        0.71330163822169
C            0.44199987881771       -2.24951726108928        0.05497188610254
C            1.57466376117890       -2.07769744865915        1.06458034902249
C            2.86041912593536       -1.54741880515076        0.42609153433287
C            2.74168302923580       -0.10383542860030       -0.05874497357997
C            4.04676147466983        0.40176710169047       -0.66821573101434
C            3.92043889137327        1.84476729144491       -1.14645028353121
H            0.63596944815873        2.25284107181542        1.86338796423228
H            0.21385640741163        3.95454476429536        1.68142162706766
H            1.42240559285775        3.22836438236102        0.61948099450948
H           -0.73357592344258        3.46493009737739       -0.58602603948207
H           -0.30021860719373        1.76705639944838       -0.38157557078473
H           -2.21396044133905        3.32374299215281        1.41126637157270
H           -1.82015146988774        1.62178064392777        1.58689342271103
H           -3.99889859414746        1.94061315711486        0.50076314963231
H           -3.26786770128011        2.94606529781300       -0.74944163708008
H           -3.75771414604223        0.71566625637210       -1.60150829656089
H           -2.02703405230332        1.01778527296106       -1.63315817371524
H           -1.78875916043887       -0.25988535578106        0.50086338687308
H           -3.51306544513496       -0.62708983090453        0.46418513035859
H           -3.22623381932589       -1.82977497526355       -1.67348041021373
H           -1.52989539881675       -1.38070364180237       -1.72751555672554
H           -2.89193009681009       -3.20664125286601        0.29822789618429
H           -1.77627491949602       -3.68606091485196       -0.98016155552584
H           -0.65048244893548       -3.73056736277662        1.16294199435401
H           -1.11716062429448       -2.07725975806998        1.52401464348976
H            0.24605659019518       -1.28934808212239       -0.41848681636233
H            0.75079202045585       -2.95101311208770       -0.72254243364354
H            1.25538074705739       -1.39025855322522        1.85137164288223
H            1.78346617777450       -3.04122215584772        1.53430570048276
H            3.13431635276390       -2.18953013547265       -0.41381595517925
H            3.66733754794161       -1.60231339926756        1.16012265417622
H            1.95673548886766       -0.02697057661573       -0.81200800043050
H            2.46244153500225        0.53692703295805        0.77977178407388
H            4.32041133793567       -0.23687915867649       -1.51045200776697
H            4.84542973969600        0.33292821302284        0.07277111373343
H            3.12329957239877        1.93216235161334       -1.88144469270092
H            3.68867243315372        2.50076909254088       -0.31051234111037
H            4.84805457107054        2.18217928144568       -1.60164842980804
47
 energy: -48.469608762146 gnorm: 0.003138692890 xtb: 6.6.1 (8d0f1dd)
C            0.48231786269176        3.05495861947388        1.14036015757987
C           -0.61055014347129        2.66790163555004        0.14893117818374
C           -1.94295778781780        2.42536733912182        0.85402234791881
C           -3.09615475293684        2.08914112768482       -0.09610498867059
C           -2.87901432216033        0.84951239231193       -0.96812291840709
C           -2.63980596180000       -0.42082310462180       -0.15584423144006
C           -2.35526375682923       -1.62546849372409       -1.04966542114939
C           -2.01117989782308       -2.89547315333474       -0.26512729089321
C           -0.83874208948931       -2.75539955428439        0.71123521044703
C            0.44220718967797       -2.24996451596337        0.05261828150225
C            1.57500452787144       -2.07832311691340        1.06211124150083
C            2.86096210095911       -1.54855612489669        0.42431572085688
C            2.74379743207295       -0.10409594012941       -0.05807573838126
C            4.04923847891508        0.40183894119239       -0.66630529595610
C            3.92358592691432        1.84438373478692       -1.14463397815074
H            0.63320417017885        2.25885309124384        1.86662528664951
H            0.20958370844542        3.95966203366863        1.67932908341439
H            1.42160588698495        3.23224478028772        0.62242219026929
H           -0.73162806084470        3.46342208553591       -0.58930268221293
H           -0.29874086334372        1.76607526397605       -0.37909835578675
H           -2.21456344762991        3.32799637762494        1.40719759839438
H           -1.82172381871319        1.62616415007420        1.58735785988574
H           -3.99950888454593        1.94281494966905        0.50071050225276
H           -3.26929389333194        2.94563931545928       -0.75195876848477
H           -3.76100911893724        0.71343094130651       -1.59856825932480
H           -2.03042899143821        1.01597024498876       -1.63442665445241
H           -1.78691103834720       -0.25989753878994        0.50065256934794
H           -3.51158480368899       -0.62628242406877        0.46888965817609
H           -3.23209126314862       -1.83087423264873       -1.66840170760291
H           -1.53576908217849       -1.38249274260852       -1.72898881446999
H           -2.89150141506699       -3.20935405906074        0.30029148929980
H           -1.77875981468580       -3.68716890120375       -0.98104127671461
H           -0.64796225552290       -3.73346897366631        1.15929105574776
H           -1.11518977068604       -2.08098543988844        1.52380878691726
H            0.24547026884721       -1.28953330238849       -0.42050095145464
H            0.75161442366686       -2.95062068794618       -0.72580899999688
H            1.25566682002369       -1.39091506154683        1.84919531946492
H            1.78300353300071       -3.04216335153402        1.53222641011204
H            3.13405433691869       -2.18963791096330       -0.41690721311425
H            3.66864640957900       -1.60576914464293        1.15775279560396
H            1.95865338575202       -0.02545931623846       -0.81129308331755
H            2.46444920493015        0.53569735034385        0.78150124678132
H            4.32395870093587       -0.23721836673465       -1.50822676888645
H            4.84743736753775        0.33266176575661        0.07555469203027
H            3.12683606663313        1.93212929386150       -1.88016226985845
H            3.69168181282179        2.50097723021080       -0.30904693145448
H            4.85134361907909        2.18196979366854       -1.59968408215655
47
 energy: -48.469665888932 gnorm: 0.001707063574 xtb: 6.6.1 (8d0f1dd)
C            0.47256164008207        3.07127592980805        1.14208633328406
C           -0.60986835158273        2.66970122054804        0.14748185002218
C           -1.94675559183816        2.43533194512239        0.84710588810590
C           -3.09913086348087        2.09117869279866       -0.09997689317864
C           -2.88544278680699        0.84524962648047       -0.96272050246394
C           -2.63853499195140       -0.42156787710710       -0.14703377756742
C           -2.36849666641319       -1.62981147848339       -1.04089001313317
C           -2.01510720260247       -2.90085500624109       -0.26327880226136
C           -0.83523980738279       -2.76386922724318        0.70330671913000
C            0.44208733879857       -2.25185628726138        0.04263557587055
C            1.57613612108161       -2.08144974156176        1.05107548002051
C            2.86325944795008       -1.55374888618856        0.41629483760104
C            2.75283326035805       -0.10540621503279       -0.05572717288144
C            4.05990240493936        0.40244380541739       -0.65846490142223
C            3.93711964945577        1.84347429677570       -1.13679480967226
H            0.62176335878035        2.28449515339047        1.87944028866206
H            0.19216327717729        3.98142173911942        1.66890768765385
H            1.41679894303637        3.24732407823039        0.63171873910911
H           -0.72578126750949        3.45597303250280       -0.60268797600228
H           -0.29432035858054        1.76095384713403       -0.36782202682750
H           -2.21820305585314        3.34435062829893        1.39156298175161
H           -1.82916739641889        1.64275407325564        1.58884572488976
H           -4.00260983976775        1.95193256324510        0.49986018684356
H           -3.27428538824065        2.94281317050409       -0.76313250328341
H           -3.77223299677328        0.70364934930590       -1.58680040124312
H           -2.04203103380957        1.00900546811123       -1.63711278555324
H           -1.77768566044284       -0.25987304372326        0.49979666234375
H           -3.50416255587529       -0.62266807884523        0.48916685588534
H           -3.25514390229104       -1.83377547749585       -1.64768654669372
H           -1.55814298115421       -1.38978304569857       -1.73290708864243
H           -2.89006981919743       -3.21998383848540        0.30922600145691
H           -1.78988083262256       -3.69075646175828       -0.98489211992105
H           -0.63910125258033       -3.74464996297642        1.14549113887212
H           -1.10849951410962       -2.09488130519553        1.52205384616906
H            0.24186661679334       -1.29025880182087       -0.42807431573880
H            0.75301961908827       -2.94931080620266       -0.73924067489310
H            1.25725332244237       -1.39416881829545        1.83933647063451
H            1.78141935440627       -3.04653829306895        1.52201764956264
H            3.13327151817906       -2.19041206874166       -0.43012248155893
H            3.67268702306954       -1.62100165608111        1.14837686158142
H            1.96734582277866       -0.01961893041521       -0.80885685943596
H            2.47369254676597        0.52963679865723        0.78859197554157
H            4.33911441339502       -0.23709989071130       -1.49961062940198
H            4.85597282279692        0.33238675129958        0.08686645093663
H            3.14268410138390        1.93345269306752       -1.87510635975216
H            3.70465351318490        2.50261468053806       -0.30282725003084
H            4.86627600134151        2.18079265502398       -1.59037531436920
47
 energy: -48.469687279274 gnorm: 0.002346812838 xtb: 6.6.1 (8d0f1dd)
C            0.46680349495251        3.08051128924531        1.14138497523583
C           -0.61154543087453        2.66985247904560        0.14702087298337
C           -1.95026571565253        2.43966028212095        0.84473011334133
C           -3.10155627829450        2.09209641004765       -0.10185133875746
C           -2.88738416895852        0.84287100636645       -0.95925786157647
C           -2.63659565661025       -0.42167911093895       -0.14124511740827
C           -2.37458641648605       -1.63142255740362       -1.03551187517597
C           -2.01802367485988       -2.90367444957048       -0.26182458562008
C           -0.83433808235665       -2.76767036558929        0.69985657328278
C            0.44096916195774       -2.25304894655907        0.03694605761561
C            1.57648893785600       -2.08395176165488        1.04415043533654
C            2.86463165579062       -1.55712365566510        0.41081237829862
C            2.75791285387007       -0.10637541057946       -0.05500849434279
C            4.06621152629004        0.40271931641968       -0.65431926336517
C            3.94547384187786        1.84382610931027       -1.13194510495621
H            0.61545707178916        2.29982138255838        1.88540698879170
H            0.18334912871338        3.99418344732847        1.66052504469101
H            1.41256953119455        3.25455882669894        0.63297496922829
H           -0.72586676213896        3.45013582189355       -0.60971963466040
H           -0.29416405206492        1.75721931861754       -0.36030659688488
H           -2.22162833108758        3.35131298321528        1.38490210104226
H           -1.83456330041109        1.64992845455912        1.58975719872749
H           -4.00568851528293        1.95644670245648        0.49802164529298
H           -3.27610680790485        2.94060166198736       -0.76940304245037
H           -3.77505559923418        0.69757171329398       -1.58133388283525
H           -2.04539169323822        1.00583613031443       -1.63560434865325
H           -1.77111214402154       -0.25971165191966        0.49927187176075
H           -3.49830095291665       -0.62030937015516        0.50110146308254
H           -3.26554351583707       -1.83326689585075       -1.63673453605378
H           -1.56807261387337       -1.39321670882617       -1.73251945730431
H           -2.89010567421730       -3.22472847505658        0.31426914478447
H           -1.79653544856663       -3.69212171634184       -0.98641343003143
H           -0.63600233265351       -3.74915899926870        1.13972231880306
H           -1.10601356079443       -2.10035757117364        1.52050459912089
H            0.23882465603833       -1.29069786855818       -0.43144989079023
H            0.75110514554898       -2.94888615157319       -0.74678176765252
H            1.25859083669605       -1.39701328811872        1.83323222136652
H            1.78083745809189       -3.04977049560685        1.51434437725656
H            3.13323994585629       -2.19106475711704       -0.43819525341249
H            3.67370111753944       -1.62992202105979        1.14293154981496
H            1.97288433189504       -0.01652543544585       -0.80823977767694
H            2.47927180736078        0.52533539378505        0.79207834616704
H            4.34789898338848       -0.23587722956352       -1.49551227492432
H            4.86068876556374        0.33231292278880        0.09287711951840
H            3.15304220321715        1.93563894087757       -1.87231931689486
H            3.71229554570293        2.50381588952615       -0.29869811617278
H            4.87618672714518        2.18018541113959       -1.58352339794278
47
 energy: -48.469714557673 gnorm: 0.001437901000 xtb: 6.6.1 (8d0f1dd)