 Entering Gaussian System
 *********************************************
 Gaussian 98:
 frequency output generated by the xtb code
 *********************************************
                         Standard orientation:
 --------------------------------------------------------------------
  Center     Atomic     Atomic              Coordinates (Angstroms)
  Number     Number      Type              X           Y           Z
 --------------------------------------------------------------------
    1          6             0       -3.081867    0.970211    0.128214
    2          6             0       -1.851604    0.286778   -0.456742
    3          6             0       -1.154955   -0.595659    0.576583
    4          6             0        0.000212   -1.416676    0.000945
    5          6             0        1.154444   -0.595271   -0.575977
    6          6             0        1.851796    0.287600    0.456476
    7          6             0        3.080380    0.972519   -0.130266
    8          1             0       -3.801122    0.231555    0.476060
    9          1             0       -2.803665    1.598314    0.972081
   10          1             0       -3.566049    1.594803   -0.619126
   11          1             0       -2.148522   -0.325577   -1.311578
   12          1             0       -1.160378    1.050224   -0.817116
   13          1             0       -0.793968    0.024894    1.398587
   14          1             0       -1.889339   -1.290013    0.993705
   15          1             0       -0.391087   -2.064219   -0.788174
   16          1             0        0.392227   -2.062570    0.791065
   17          1             0        0.792375    0.024955   -1.397738
   18          1             0        1.888743   -1.289355   -0.993698
   19          1             0        1.160378    1.050161    0.818345
   20          1             0        2.150786   -0.324729    1.310615
   21          1             0        2.799727    1.602929   -0.971612
   22          1             0        3.798454    0.234703   -0.482341
   23          1             0        3.566936    1.594997    0.617277
 --------------------------------------------------------------------
     1 basis functions        1 primitive gaussians
     1 alpha electrons        1 beta electrons
 
 Harmonic frequencies (cm**-1), IR intensities (km*mol⁻¹),
 Raman scattering activities (A**4/amu), Raman depolarization ratios,
 reduced masses (AMU), force constants (mDyne/A) and normal coordinates:
                      1                      2                      3
                        a                      a                      a 
 Frequencies --    46.7322                69.1047                73.5946
 Red. masses --     8.4178                 6.1794                 6.1868
 Frc consts  --     0.0000                 0.0000                 0.0000
 IR Inten    --     0.0006                 0.0303                 0.0054
 Raman Activ --     0.0000                 0.0000                 0.0000
 Depolar     --     0.0000                 0.0000                 0.0000
 Atom AN      X      Y      Z        X      Y      Z        X      Y      Z
   1   6     0.33   0.20   0.04     0.15   0.15   0.20    -0.21  -0.28  -0.02
   2   6     0.30   0.12   0.07    -0.22  -0.28  -0.08     0.16   0.25   0.15
   3   6    -0.01  -0.22  -0.02     0.03  -0.06  -0.07     0.02   0.04   0.05
   4   6     0.00  -0.23   0.00     0.05   0.00  -0.12    -0.00   0.04   0.00
   5   6     0.01  -0.22   0.02     0.03   0.06  -0.07    -0.03   0.04  -0.05
   6   6    -0.30   0.12  -0.07    -0.22   0.28  -0.08    -0.15   0.24  -0.14
   7   6    -0.33   0.20  -0.04     0.15  -0.15   0.20     0.21  -0.28   0.02
   8   1     0.04   0.07  -0.07     0.06   0.11   0.24    -0.06  -0.17  -0.18
   9   1     0.09  -0.01   0.07     0.18   0.13  -0.05    -0.20  -0.18   0.11
  10   1     0.16   0.13   0.03    -0.03  -0.02   0.05    -0.02  -0.01   0.02
  11   1     0.10   0.11  -0.03    -0.19  -0.14   0.07     0.17   0.14  -0.05
  12   1     0.14   0.03   0.10    -0.06  -0.15  -0.18     0.03   0.16   0.19
  13   1    -0.02  -0.14   0.06     0.02   0.02  -0.06     0.00  -0.04   0.05
  14   1    -0.05  -0.07  -0.09     0.05  -0.02   0.04    -0.01   0.00  -0.03
  15   1     0.01  -0.07  -0.00     0.02   0.00  -0.04    -0.01   0.01   0.00
  16   1    -0.01  -0.07   0.00     0.02  -0.00  -0.04     0.01   0.01  -0.00
  17   1     0.02  -0.14  -0.06     0.02  -0.03  -0.06    -0.00  -0.04  -0.05
  18   1     0.05  -0.07   0.09     0.05   0.02   0.04     0.01   0.00   0.03
  19   1    -0.14   0.03  -0.10    -0.06   0.15  -0.18    -0.03   0.16  -0.19
  20   1    -0.10   0.11   0.03    -0.20   0.15   0.07    -0.17   0.14   0.05
  21   1    -0.09  -0.01  -0.07     0.19  -0.13  -0.05     0.19  -0.17  -0.11
  22   1    -0.04   0.07   0.07     0.06  -0.12   0.24     0.06  -0.17   0.18
  23   1    -0.16   0.13  -0.03    -0.03   0.02   0.05     0.02  -0.01  -0.02
                      4                      5                      6
                        a                      a                      a 
 Frequencies --   184.7893               208.7699               234.7079
 Red. masses --     7.2131                 6.5267                 2.6710
 Frc consts  --     0.0000                 0.0000                 0.0000
 IR Inten    --     0.1187                 0.0052                 0.0948
 Raman Activ --     0.0000                 0.0000                 0.0000
 Depolar     --     0.0000                 0.0000                 0.0000
 Atom AN      X      Y      Z        X      Y      Z        X      Y      Z
   1   6    -0.13  -0.12   0.13    -0.09   0.03   0.19    -0.01   0.03  -0.09
   2   6    -0.04   0.17  -0.03    -0.24   0.04  -0.16     0.11   0.08   0.11
   3   6     0.23   0.37  -0.05    -0.21  -0.08  -0.27    -0.08  -0.16   0.04
   4   6    -0.07  -0.00  -0.13    -0.00   0.02  -0.00    -0.02  -0.00  -0.07
   5   6     0.23  -0.37  -0.05     0.21  -0.08   0.27    -0.08   0.16   0.04
   6   6    -0.04  -0.17  -0.04     0.24   0.04   0.16     0.11  -0.08   0.11
   7   6    -0.13   0.12   0.13     0.09   0.03  -0.19    -0.01  -0.03  -0.09
   8   1     0.07  -0.09   0.15    -0.11   0.01  -0.12     0.14   0.00   0.26
   9   1    -0.04   0.06  -0.03     0.01  -0.19   0.19    -0.01   0.29  -0.24
  10   1    -0.17  -0.15   0.03     0.05   0.21   0.17    -0.17  -0.28  -0.16
  11   1    -0.01   0.01   0.01    -0.12   0.05  -0.06     0.08   0.06  -0.01
  12   1    -0.07   0.08  -0.05    -0.06   0.01  -0.04     0.05   0.04   0.10
  13   1     0.15   0.15  -0.09    -0.12  -0.04  -0.04    -0.06  -0.11   0.07
  14   1     0.08   0.17   0.10    -0.06  -0.06  -0.13    -0.04  -0.08  -0.08
  15   1    -0.09   0.05  -0.05     0.07   0.00  -0.03     0.01   0.03  -0.05
  16   1    -0.09  -0.05  -0.05    -0.07   0.00   0.03     0.01  -0.03  -0.05
  17   1     0.15  -0.15  -0.09     0.12  -0.04   0.04    -0.06   0.11   0.07
  18   1     0.08  -0.16   0.10     0.06  -0.06   0.13    -0.04   0.08  -0.08
  19   1    -0.07  -0.08  -0.05     0.06   0.01   0.04     0.05  -0.04   0.10
  20   1    -0.01  -0.01   0.01     0.12   0.05   0.06     0.08  -0.06  -0.01
  21   1    -0.04  -0.06  -0.03    -0.01  -0.19  -0.19    -0.01  -0.29  -0.24
  22   1     0.07   0.09   0.15     0.11   0.01   0.12     0.14  -0.00   0.26
  23   1    -0.17   0.15   0.03    -0.05   0.21  -0.17    -0.17   0.28  -0.16
                      7                      8                      9
                        a                      a                      a 
 Frequencies --   242.7111               293.3616               302.7072
 Red. masses --     3.8031                 6.5019                 8.4975
 Frc consts  --     0.0000                 0.0000                 0.0000
 IR Inten    --     0.0145                 0.7152                 0.0582
 Raman Activ --     0.0000                 0.0000                 0.0000
 Depolar     --     0.0000                 0.0000                 0.0000
 Atom AN      X      Y      Z        X      Y      Z        X      Y      Z
   1   6     0.04   0.05  -0.12     0.07  -0.08   0.17     0.25  -0.23   0.13
   2   6    -0.01  -0.19   0.06     0.01   0.14  -0.22     0.17   0.03  -0.28
   3   6     0.14   0.10   0.20    -0.14   0.03  -0.21     0.17   0.21  -0.15
   4   6     0.00   0.04   0.00     0.14   0.00   0.37     0.00  -0.02   0.00
   5   6    -0.14   0.10  -0.20    -0.14  -0.03  -0.21    -0.18   0.21   0.15
   6   6     0.01  -0.19  -0.06     0.01  -0.14  -0.22    -0.17   0.03   0.28
   7   6    -0.04   0.05   0.12     0.07   0.08   0.17    -0.25  -0.23  -0.13
   8   1    -0.16   0.06  -0.29     0.10  -0.07   0.12     0.13  -0.12   0.04
   9   1    -0.02  -0.20   0.13     0.07  -0.02   0.03     0.13  -0.13   0.07
  10   1     0.23   0.24   0.01    -0.10  -0.04   0.11    -0.02  -0.02   0.13
  11   1    -0.02  -0.12   0.07    -0.00   0.09  -0.09     0.03  -0.01  -0.06
  12   1    -0.01  -0.09  -0.06    -0.01   0.07  -0.02     0.00   0.03  -0.11
  13   1     0.10   0.09  -0.02    -0.14   0.01  -0.02     0.09   0.12  -0.10
  14   1     0.07   0.06   0.16    -0.07  -0.01  -0.14     0.03   0.13   0.04
  15   1    -0.05   0.01   0.03     0.10  -0.22   0.26     0.01  -0.00  -0.00
  16   1     0.05   0.01  -0.03     0.10   0.22   0.26    -0.00   0.00   0.01
  17   1    -0.10   0.09   0.02    -0.14  -0.01  -0.02    -0.09   0.12   0.10
  18   1    -0.07   0.06  -0.16    -0.07   0.00  -0.14    -0.03   0.13  -0.04
  19   1     0.01  -0.09   0.06    -0.01  -0.07  -0.02    -0.00   0.03   0.11
  20   1     0.02  -0.12  -0.07    -0.00  -0.09  -0.09    -0.03  -0.01   0.06
  21   1     0.02  -0.20  -0.14     0.08   0.02   0.03    -0.12  -0.13  -0.07
  22   1     0.16   0.06   0.29     0.10   0.07   0.12    -0.13  -0.12  -0.04
  23   1    -0.23   0.24  -0.01    -0.10   0.04   0.11     0.01  -0.02  -0.13
                     10                     11                     12
                        a                      a                      a 
 Frequencies --   429.6630               504.6543               757.4391
 Red. masses --     8.5229                 8.1713                 2.4185
 Frc consts  --     0.0000                 0.0000                 0.0000
 IR Inten    --     0.0288                 0.7518                12.5675
 Raman Activ --     0.0000                 0.0000                 0.0000
 Depolar     --     0.0000                 0.0000                 0.0000
 Atom AN      X      Y      Z        X      Y      Z        X      Y      Z
   1   6     0.27  -0.22   0.03     0.17  -0.13   0.00    -0.03   0.03   0.00
   2   6     0.16  -0.09  -0.15     0.08  -0.12  -0.01     0.04   0.11  -0.05
   3   6    -0.22   0.05   0.13    -0.23   0.04   0.19     0.09   0.12   0.07
   4   6    -0.44  -0.00  -0.03    -0.00   0.57  -0.00     0.15   0.00   0.13
   5   6    -0.22  -0.05   0.13     0.23   0.04  -0.19     0.09  -0.12   0.07
   6   6     0.16   0.09  -0.15    -0.08  -0.12   0.01     0.04  -0.11  -0.05
   7   6     0.27   0.22   0.03    -0.17  -0.13  -0.00    -0.03  -0.03   0.00
   8   1     0.12  -0.10   0.03     0.06  -0.05   0.01     0.04  -0.06  -0.05
   9   1     0.12  -0.10   0.02     0.08  -0.06   0.01    -0.08  -0.01   0.03
  10   1     0.00  -0.04   0.08     0.02  -0.02   0.04    -0.04  -0.00   0.01
  11   1     0.06  -0.04  -0.03     0.04  -0.07   0.01    -0.11  -0.15   0.15
  12   1     0.07  -0.04  -0.03     0.06  -0.07  -0.00    -0.08  -0.02  -0.27
  13   1    -0.04   0.03   0.02    -0.24  -0.03   0.16    -0.20  -0.12   0.23
  14   1    -0.11   0.07   0.04    -0.04  -0.12  -0.11    -0.05  -0.09  -0.31
  15   1    -0.18   0.15  -0.11    -0.04   0.15   0.03    -0.07   0.22  -0.09
  16   1    -0.18  -0.15  -0.11     0.04   0.15  -0.03    -0.07  -0.22  -0.09
  17   1    -0.04  -0.03   0.02     0.24  -0.02  -0.16    -0.20   0.12   0.23
  18   1    -0.11  -0.07   0.04     0.04  -0.12   0.11    -0.05   0.09  -0.31
  19   1     0.07   0.04  -0.03    -0.06  -0.07   0.00    -0.08   0.02  -0.27
  20   1     0.06   0.04  -0.04    -0.04  -0.07  -0.01    -0.11   0.15   0.15
  21   1     0.12   0.10   0.02    -0.08  -0.06  -0.01    -0.08   0.01   0.04
  22   1     0.12   0.10   0.03    -0.06  -0.05  -0.01     0.04   0.06  -0.05
  23   1     0.00   0.04   0.08    -0.02  -0.02  -0.04    -0.04   0.00   0.01
                     13                     14                     15
                        a                      a                      a 
 Frequencies --   789.4908               827.8249               881.4748
 Red. masses --     2.2349                 3.4639                 7.2172
 Frc consts  --     0.0000                 0.0000                 0.0000
 IR Inten    --     7.6471                 0.1431                 0.9155
 Raman Activ --     0.0000                 0.0000                 0.0000
 Depolar     --     0.0000                 0.0000                 0.0000
 Atom AN      X      Y      Z        X      Y      Z        X      Y      Z
   1   6    -0.00   0.03   0.02    -0.10   0.00  -0.02     0.05  -0.11   0.06
   2   6     0.10   0.14   0.06    -0.11  -0.07  -0.17     0.00  -0.12   0.18
   3   6     0.13   0.04  -0.04     0.07   0.03   0.09     0.26   0.03  -0.33
   4   6     0.00  -0.06   0.00     0.22   0.00   0.18     0.00   0.29   0.00
   5   6    -0.13   0.04   0.04     0.07  -0.03   0.09    -0.26   0.03   0.33
   6   6    -0.10   0.14  -0.06    -0.11   0.07  -0.17    -0.00  -0.12  -0.18
   7   6     0.00   0.03  -0.02    -0.10  -0.00  -0.02    -0.05  -0.11  -0.06
   8   1     0.07  -0.12  -0.11    -0.10   0.14   0.13    -0.15   0.14   0.02
   9   1    -0.20   0.02   0.06     0.22  -0.03  -0.06     0.01   0.07  -0.06
  10   1    -0.03  -0.06  -0.03    -0.02   0.10   0.07     0.22  -0.05  -0.14
  11   1    -0.20  -0.18   0.24     0.18   0.10  -0.20     0.04   0.01   0.01
  12   1    -0.03  -0.09  -0.35    -0.06   0.13   0.20    -0.10   0.08   0.07
  13   1    -0.03  -0.16   0.15    -0.13   0.08   0.03     0.01  -0.05  -0.02
  14   1    -0.06  -0.02  -0.22     0.06  -0.05  -0.01     0.10  -0.08  -0.18
  15   1     0.00  -0.01  -0.00    -0.05   0.28  -0.13     0.08   0.08  -0.04
  16   1    -0.00  -0.02   0.00    -0.05  -0.28  -0.13    -0.08   0.08   0.04
  17   1     0.03  -0.16  -0.15    -0.13  -0.08   0.03    -0.01  -0.05   0.02
  18   1     0.06  -0.02   0.22     0.06   0.05  -0.01    -0.10  -0.08   0.18
  19   1     0.03  -0.09   0.35    -0.06  -0.13   0.20     0.10   0.08  -0.08
  20   1     0.20  -0.18  -0.24     0.18  -0.10  -0.20    -0.04   0.01  -0.01
  21   1     0.20   0.02  -0.06     0.22   0.03  -0.06    -0.02   0.07   0.06
  22   1    -0.07  -0.12   0.11    -0.10  -0.14   0.13     0.15   0.14  -0.02
  23   1     0.03  -0.06   0.03    -0.02  -0.10   0.07    -0.22  -0.05   0.14
                     16                     17                     18
                        a                      a                      a 
 Frequencies --   907.9511               915.7701               962.3730
 Red. masses --     4.8180                 3.8216                 3.5736
 Frc consts  --     0.0000                 0.0000                 0.0000
 IR Inten    --     0.4314                 0.0210                 9.3889
 Raman Activ --     0.0000                 0.0000                 0.0000
 Depolar     --     0.0000                 0.0000                 0.0000
 Atom AN      X      Y      Z        X      Y      Z        X      Y      Z
   1   6    -0.07   0.18  -0.03     0.18   0.01   0.05    -0.15   0.05  -0.13
   2   6     0.02   0.10  -0.18     0.00  -0.02   0.14     0.03   0.05  -0.06
   3   6    -0.06  -0.21   0.15    -0.20  -0.06  -0.14     0.04  -0.02   0.18
   4   6     0.20  -0.00   0.11     0.00   0.15   0.00    -0.08  -0.00  -0.23
   5   6    -0.06   0.21   0.14     0.20  -0.06   0.15     0.04   0.02   0.18
   6   6     0.02  -0.10  -0.18    -0.00  -0.02  -0.14     0.03  -0.05  -0.06
   7   6    -0.07  -0.18  -0.02    -0.18   0.00  -0.05    -0.15  -0.06  -0.13
   8   1     0.18  -0.18  -0.07     0.11  -0.14  -0.14     0.03   0.01   0.10
   9   1    -0.13  -0.03   0.08    -0.26   0.07   0.06     0.23  -0.12  -0.01
  10   1    -0.23   0.02   0.11     0.07  -0.14  -0.12    -0.21   0.15   0.20
  11   1    -0.12   0.07  -0.04    -0.19   0.11   0.02     0.18  -0.17   0.05
  12   1     0.15  -0.11  -0.06     0.14  -0.13   0.04    -0.03   0.02  -0.07
  13   1     0.06   0.08  -0.09     0.05   0.15  -0.20     0.14  -0.18   0.13
  14   1     0.03   0.01   0.21     0.04   0.04   0.20    -0.03  -0.01  -0.02
  15   1     0.10   0.14  -0.11     0.10   0.04  -0.05     0.09  -0.22   0.07
  16   1     0.10  -0.14  -0.11    -0.10   0.04   0.05     0.09   0.22   0.07
  17   1     0.06  -0.08  -0.10    -0.05   0.15   0.20     0.14   0.18   0.13
  18   1     0.03  -0.01   0.21    -0.04   0.04  -0.20    -0.03   0.01  -0.02
  19   1     0.15   0.11  -0.06    -0.14  -0.13  -0.04    -0.03  -0.02  -0.07
  20   1    -0.12  -0.08  -0.04     0.19   0.11  -0.02     0.18   0.17   0.05
  21   1    -0.13   0.03   0.09     0.25   0.07  -0.06     0.23   0.12  -0.01
  22   1     0.18   0.18  -0.07    -0.11  -0.14   0.14     0.03  -0.01   0.10
  23   1    -0.23  -0.02   0.11    -0.07  -0.14   0.12    -0.21  -0.15   0.20
                     19                     20                     21
                        a                      a                      a 
 Frequencies --   996.9249              1061.1982              1068.4974
 Red. masses --     6.4654                 3.8225                 4.5395
 Frc consts  --     0.0000                 0.0000                 0.0000
 IR Inten    --     2.8056                 0.3660                 1.2173
 Raman Activ --     0.0000                 0.0000                 0.0000
 Depolar     --     0.0000                 0.0000                 0.0000
 Atom AN      X      Y      Z        X      Y      Z        X      Y      Z
   1   6    -0.12   0.19  -0.04    -0.02   0.01   0.20     0.13   0.07  -0.15
   2   6     0.03  -0.05  -0.11     0.04  -0.05  -0.23    -0.19  -0.08   0.16
   3   6     0.30  -0.21  -0.05     0.10   0.00   0.11     0.03   0.19  -0.02
   4   6    -0.00   0.30  -0.00    -0.00  -0.12   0.00     0.02  -0.00  -0.16
   5   6    -0.30  -0.21   0.05    -0.10   0.00  -0.11     0.03  -0.19  -0.02
   6   6    -0.03  -0.06   0.11    -0.04  -0.05   0.23    -0.19   0.08   0.16
   7   6     0.12   0.19   0.04     0.02   0.01  -0.20     0.13  -0.07  -0.15
   8   1     0.12  -0.11  -0.02    -0.11   0.05  -0.05     0.20  -0.15  -0.05
   9   1    -0.05  -0.04   0.06    -0.20   0.13   0.02     0.02  -0.08   0.04
  10   1    -0.22   0.06   0.12     0.15  -0.09  -0.13    -0.14   0.02   0.08
  11   1    -0.01   0.06  -0.08    -0.10   0.15  -0.14    -0.02   0.06  -0.02
  12   1     0.13  -0.09   0.04    -0.01   0.03  -0.00     0.12  -0.11   0.18
  13   1     0.03  -0.01  -0.02    -0.24   0.14   0.03    -0.19   0.08   0.05
  14   1     0.25  -0.21   0.02     0.01  -0.04  -0.05     0.22  -0.22  -0.06
  15   1    -0.05   0.07   0.03    -0.30  -0.03   0.15    -0.14  -0.08   0.10
  16   1     0.05   0.07  -0.03     0.30  -0.03  -0.15    -0.14   0.08   0.09
  17   1    -0.03  -0.01   0.02     0.24   0.15  -0.03    -0.18  -0.08   0.05
  18   1    -0.25  -0.21  -0.02    -0.01  -0.04   0.05     0.22   0.22  -0.06
  19   1    -0.13  -0.09  -0.04     0.01   0.03   0.00     0.12   0.11   0.18
  20   1     0.01   0.06   0.08     0.10   0.15   0.14    -0.02  -0.06  -0.02
  21   1     0.05  -0.04  -0.06     0.20   0.13  -0.02     0.02   0.08   0.04
  22   1    -0.12  -0.11   0.02     0.11   0.05   0.05     0.20   0.15  -0.05
  23   1     0.22   0.06  -0.12    -0.15  -0.09   0.13    -0.14  -0.02   0.08
                     22                     23                     24
                        a                      a                      a 
 Frequencies --  1087.5977              1098.0790              1146.5803
 Red. masses --     8.6324                 8.4407                 8.3856
 Frc consts  --     0.0000                 0.0000                 0.0000
 IR Inten    --     0.3578                 0.0014                 0.4279
 Raman Activ --     0.0000                 0.0000                 0.0000
 Depolar     --     0.0000                 0.0000                 0.0000
 Atom AN      X      Y      Z        X      Y      Z        X      Y      Z
   1   6    -0.25   0.17   0.15     0.27  -0.12  -0.18    -0.05   0.02   0.12
   2   6     0.30  -0.26  -0.07    -0.37   0.22   0.05     0.12  -0.09  -0.04
   3   6     0.11   0.00  -0.15     0.10  -0.06   0.09    -0.27   0.26   0.14
   4   6    -0.22  -0.00   0.08     0.00  -0.03  -0.00     0.36   0.00  -0.38
   5   6     0.11  -0.00  -0.15    -0.10  -0.06  -0.09    -0.27  -0.26   0.14
   6   6     0.30   0.26  -0.07     0.37   0.22  -0.05     0.12   0.09  -0.04
   7   6    -0.25  -0.17   0.15    -0.27  -0.12   0.18    -0.05  -0.02   0.12
   8   1    -0.05   0.02   0.02     0.12  -0.07  -0.05    -0.05   0.03  -0.00
   9   1    -0.13   0.05   0.06     0.10  -0.06  -0.04    -0.08   0.05   0.02
  10   1    -0.09   0.03   0.04     0.04  -0.03  -0.02     0.04  -0.02  -0.03
  11   1     0.12  -0.06  -0.04    -0.17   0.14  -0.02     0.09  -0.07   0.00
  12   1     0.17  -0.13   0.04    -0.14   0.10   0.02     0.08  -0.05   0.02
  13   1    -0.05   0.02  -0.03     0.00  -0.05   0.06    -0.17   0.15   0.02
  14   1     0.03  -0.04  -0.09     0.10  -0.11  -0.00    -0.06   0.04   0.00
  15   1    -0.17  -0.00   0.08    -0.11  -0.01   0.05     0.23  -0.09  -0.09
  16   1    -0.17   0.00   0.08     0.11  -0.01  -0.05     0.23   0.09  -0.09
  17   1    -0.05  -0.02  -0.03    -0.00  -0.05  -0.06    -0.17  -0.15   0.02
  18   1     0.03   0.04  -0.09    -0.10  -0.11   0.00    -0.06  -0.04   0.00
  19   1     0.17   0.13   0.04     0.14   0.10  -0.02     0.08   0.05   0.02
  20   1     0.12   0.06  -0.04     0.17   0.14   0.02     0.09   0.07   0.00
  21   1    -0.13  -0.05   0.06    -0.10  -0.06   0.04    -0.08  -0.05   0.02
  22   1    -0.05  -0.02   0.02    -0.12  -0.07   0.05    -0.05  -0.03  -0.00
  23   1    -0.09  -0.03   0.04    -0.04  -0.03   0.02     0.04   0.02  -0.03
                     25                     26                     27
                        a                      a                      a 
 Frequencies --  1158.4228              1161.8282              1225.0379
 Red. masses --     6.9293                 7.1779                 4.8327
 Frc consts  --     0.0000                 0.0000                 0.0000
 IR Inten    --     1.7143                 0.8531                 0.0943
 Raman Activ --     0.0000                 0.0000                 0.0000
 Depolar     --     0.0000                 0.0000                 0.0000
 Atom AN      X      Y      Z        X      Y      Z        X      Y      Z
   1   6    -0.05  -0.10   0.09    -0.05  -0.01  -0.14    -0.12  -0.13  -0.11
   2   6     0.10   0.18  -0.22     0.07  -0.01   0.32     0.17   0.16   0.19
   3   6    -0.04  -0.30   0.14    -0.15   0.04  -0.30    -0.04  -0.12  -0.15
   4   6    -0.00   0.31  -0.00     0.18   0.00   0.19    -0.00   0.03   0.00
   5   6     0.04  -0.30  -0.14    -0.15  -0.04  -0.30     0.04  -0.12   0.15
   6   6    -0.10   0.18   0.22     0.07   0.01   0.32    -0.17   0.16  -0.19
   7   6     0.05  -0.10  -0.09    -0.05   0.01  -0.14     0.12  -0.13   0.11
   8   1    -0.14   0.11   0.02     0.05  -0.01   0.06    -0.08   0.09   0.11
   9   1     0.01   0.05  -0.04     0.15  -0.10  -0.01     0.20  -0.07  -0.07
  10   1     0.12  -0.02  -0.07    -0.10   0.08   0.10    -0.00   0.09   0.06
  11   1    -0.07   0.00   0.00     0.06  -0.13   0.16    -0.15   0.01   0.13
  12   1    -0.09   0.09  -0.18     0.05  -0.07   0.01     0.07  -0.07  -0.12
  13   1     0.26  -0.14  -0.03     0.02   0.07  -0.14    -0.14   0.19  -0.15
  14   1    -0.02   0.01   0.17    -0.13   0.15  -0.01     0.02   0.01   0.06
  15   1     0.06   0.07  -0.02     0.04   0.16  -0.09    -0.27   0.01   0.13
  16   1    -0.06   0.07   0.02     0.04  -0.16  -0.09     0.27   0.01  -0.13
  17   1    -0.26  -0.14   0.04     0.02  -0.07  -0.14     0.14   0.19   0.15
  18   1     0.02   0.01  -0.17    -0.13  -0.15  -0.01    -0.02   0.01  -0.06
  19   1     0.09   0.09   0.18     0.05   0.07   0.01    -0.07  -0.07   0.12
  20   1     0.06  -0.00  -0.01     0.06   0.13   0.16     0.15   0.01  -0.13
  21   1    -0.01   0.05   0.04     0.15   0.10  -0.01    -0.20  -0.07   0.07
  22   1     0.14   0.11  -0.03     0.05   0.01   0.06     0.08   0.09  -0.12
  23   1    -0.12  -0.02   0.06    -0.10  -0.08   0.10     0.00   0.09  -0.06
                     28                     29                     30
                        a                      a                      a 
 Frequencies --  1237.4813              1268.4785              1282.5388
 Red. masses --     4.2583                 3.2059                 2.0678
 Frc consts  --     0.0000                 0.0000                 0.0000
 IR Inten    --     0.5082                 0.0037                 0.2359
 Raman Activ --     0.0000                 0.0000                 0.0000
 Depolar     --     0.0000                 0.0000                 0.0000
 Atom AN      X      Y      Z        X      Y      Z        X      Y      Z
   1   6    -0.14  -0.18  -0.04     0.08   0.14  -0.01    -0.05  -0.08  -0.03
   2   6     0.18   0.23   0.02    -0.02  -0.12   0.07    -0.06  -0.06  -0.02
   3   6    -0.05  -0.07   0.04    -0.03  -0.15  -0.11     0.08   0.15   0.04
   4   6     0.01  -0.00  -0.08    -0.00   0.17   0.00     0.01  -0.00   0.02
   5   6    -0.05   0.07   0.04     0.03  -0.16   0.12     0.08  -0.15   0.04
   6   6     0.17  -0.23   0.01     0.02  -0.12  -0.07    -0.06   0.06  -0.02
   7   6    -0.14   0.18  -0.04    -0.08   0.14   0.01    -0.05   0.08  -0.03
   8   1    -0.15   0.13   0.11     0.11  -0.08  -0.06    -0.06   0.04   0.04
   9   1     0.17  -0.02  -0.09    -0.09  -0.01   0.06     0.07  -0.02  -0.04
  10   1     0.07   0.07   0.01    -0.08  -0.02   0.02     0.01   0.01   0.00
  11   1    -0.21   0.05   0.09     0.18  -0.12   0.02    -0.26   0.23  -0.09
  12   1     0.16  -0.12  -0.14    -0.27   0.20  -0.00     0.29  -0.24   0.12
  13   1    -0.12   0.14  -0.06     0.08  -0.00  -0.10     0.15  -0.18   0.12
  14   1     0.20  -0.19   0.09    -0.20   0.17  -0.02    -0.18   0.15  -0.15
  15   1    -0.11  -0.03   0.06    -0.30   0.04   0.15     0.09   0.00  -0.03
  16   1    -0.11   0.03   0.06     0.30   0.04  -0.15     0.08  -0.00  -0.03
  17   1    -0.12  -0.14  -0.06    -0.08  -0.00   0.10     0.15   0.18   0.12
  18   1     0.20   0.19   0.09     0.20   0.17   0.02    -0.18  -0.15  -0.15
  19   1     0.16   0.12  -0.14     0.27   0.20   0.00     0.29   0.24   0.12
  20   1    -0.21  -0.06   0.09    -0.18  -0.12  -0.02    -0.25  -0.23  -0.09
  21   1     0.17   0.02  -0.09     0.09  -0.01  -0.06     0.07   0.02  -0.04
  22   1    -0.15  -0.13   0.11    -0.11  -0.09   0.06    -0.06  -0.04   0.04
  23   1     0.07  -0.07   0.01     0.08  -0.02  -0.02     0.01  -0.01   0.00
                     31                     32                     33
                        a                      a                      a 
 Frequencies --  1289.3077              1301.3552              1317.0035
 Red. masses --     1.8353                 3.9253                 3.3461
 Frc consts  --     0.0000                 0.0000                 0.0000
 IR Inten    --     0.0496                 1.1254                 1.2696
 Raman Activ --     0.0000                 0.0000                 0.0000
 Depolar     --     0.0000                 0.0000                 0.0000
 Atom AN      X      Y      Z        X      Y      Z        X      Y      Z
   1   6    -0.04  -0.03  -0.05    -0.01   0.03  -0.11     0.00   0.04  -0.10
   2   6    -0.01  -0.13   0.02     0.15  -0.15   0.11     0.18  -0.14   0.07
   3   6     0.08   0.05  -0.01     0.16  -0.11   0.09     0.11  -0.10   0.13
   4   6    -0.00   0.11  -0.00    -0.08  -0.00  -0.16     0.00   0.01  -0.00
   5   6    -0.08   0.05   0.01     0.16   0.11   0.09    -0.11  -0.10  -0.13
   6   6     0.01  -0.13  -0.02     0.15   0.15   0.11    -0.18  -0.14  -0.07
   7   6     0.04  -0.04   0.05    -0.01  -0.03  -0.11    -0.00   0.04   0.10
   8   1    -0.02   0.02   0.04     0.03   0.00   0.04     0.02   0.01   0.03
   9   1     0.05  -0.03  -0.02     0.01  -0.04   0.01    -0.01  -0.03   0.02
  10   1    -0.03   0.02   0.02    -0.10   0.05   0.08    -0.10   0.05   0.07
  11   1    -0.27   0.24  -0.10    -0.24   0.19  -0.04    -0.22   0.19  -0.05
  12   1     0.17  -0.14   0.11    -0.20   0.15  -0.03    -0.25   0.20  -0.06
  13   1     0.20  -0.20   0.08    -0.25   0.20  -0.03    -0.19   0.18  -0.03
  14   1    -0.27   0.25  -0.12    -0.19   0.18  -0.05    -0.10   0.07  -0.03
  15   1    -0.12   0.05   0.04     0.02  -0.09   0.02     0.26   0.02  -0.14
  16   1     0.12   0.05  -0.04     0.02   0.09   0.02    -0.26   0.02   0.14
  17   1    -0.20  -0.21  -0.08    -0.25  -0.20  -0.02     0.19   0.18   0.03
  18   1     0.27   0.25   0.12    -0.20  -0.18  -0.05     0.11   0.07   0.03
  19   1    -0.17  -0.14  -0.11    -0.20  -0.15  -0.03     0.25   0.20   0.06
  20   1     0.26   0.24   0.10    -0.24  -0.20  -0.04     0.23   0.19   0.05
  21   1    -0.05  -0.03   0.02     0.01   0.04   0.01     0.01  -0.03  -0.02
  22   1     0.02   0.02  -0.04     0.03  -0.00   0.04    -0.02   0.01  -0.03
  23   1     0.03   0.02  -0.02    -0.10  -0.05   0.08     0.10   0.05  -0.07
                     34                     35                     36
                        a                      a                      a 
 Frequencies --  1363.3995              1372.6519              1375.7338
 Red. masses --     4.6900                 5.0540                 5.2627
 Frc consts  --     0.0000                 0.0000                 0.0000
 IR Inten    --     3.4898                 0.0781                 0.0096
 Raman Activ --     0.0000                 0.0000                 0.0000
 Depolar     --     0.0000                 0.0000                 0.0000
 Atom AN      X      Y      Z        X      Y      Z        X      Y      Z
   1   6    -0.01  -0.01  -0.01     0.01  -0.03   0.06     0.02  -0.03   0.04
   2   6    -0.01   0.03   0.02    -0.23   0.19  -0.04    -0.21   0.16  -0.02
   3   6     0.12   0.05  -0.04     0.22  -0.19   0.04     0.25  -0.22   0.05
   4   6    -0.51  -0.00   0.20    -0.03   0.00  -0.09     0.00   0.10   0.00
   5   6     0.12  -0.05  -0.04     0.22   0.19   0.04    -0.25  -0.22  -0.05
   6   6    -0.01  -0.03   0.02    -0.22  -0.19  -0.04     0.21   0.16   0.02
   7   6    -0.01   0.01  -0.01     0.01   0.03   0.06    -0.02  -0.03  -0.04
   8   1     0.01  -0.00   0.01    -0.01  -0.02  -0.04    -0.01  -0.01  -0.03
   9   1     0.01  -0.00  -0.01     0.03   0.02  -0.02     0.02   0.02  -0.02
  10   1     0.01   0.01   0.00     0.06  -0.03  -0.05     0.04  -0.02  -0.03
  11   1     0.01  -0.02   0.02     0.21  -0.16   0.05     0.18  -0.11   0.02
  12   1     0.03  -0.02   0.01     0.20  -0.17   0.04     0.17  -0.15   0.02
  13   1    -0.12   0.09  -0.00    -0.22   0.18  -0.04    -0.21   0.16  -0.02
  14   1     0.13  -0.12  -0.04    -0.20   0.18  -0.05    -0.24   0.24  -0.02
  15   1     0.47  -0.02  -0.23    -0.06  -0.05   0.04     0.13   0.02  -0.06
  16   1     0.47   0.02  -0.23    -0.06   0.05   0.04    -0.13   0.02   0.06
  17   1    -0.12  -0.09  -0.00    -0.22  -0.18  -0.04     0.21   0.16   0.02
  18   1     0.13   0.12  -0.04    -0.20  -0.18  -0.05     0.24   0.24   0.02
  19   1     0.03   0.02   0.01     0.20   0.17   0.04    -0.17  -0.15  -0.02
  20   1     0.01   0.02   0.02     0.21   0.16   0.05    -0.18  -0.11  -0.02
  21   1     0.01   0.00  -0.01     0.03  -0.02  -0.02    -0.02   0.02   0.02
  22   1     0.01   0.00   0.01    -0.01   0.02  -0.04     0.01  -0.01   0.03
  23   1     0.01  -0.01   0.00     0.06   0.03  -0.05    -0.04  -0.02   0.03
                     37                     38                     39
                        a                      a                      a 
 Frequencies --  1416.7338              1416.9408              1489.8966
 Red. masses --     3.1571                 3.1689                 1.8737
 Frc consts  --     0.0000                 0.0000                 0.0000
 IR Inten    --     0.3716                 0.9415                 0.2468
 Raman Activ --     0.0000                 0.0000                 0.0000
 Depolar     --     0.0000                 0.0000                 0.0000
 Atom AN      X      Y      Z        X      Y      Z        X      Y      Z
   1   6     0.26  -0.15  -0.11     0.24  -0.14  -0.10     0.01  -0.01   0.01
   2   6    -0.04   0.03  -0.01    -0.04   0.03  -0.01    -0.00  -0.00   0.02
   3   6     0.00   0.00  -0.02     0.01  -0.01  -0.01     0.01  -0.01  -0.06
   4   6    -0.00   0.00   0.00    -0.00  -0.00   0.01     0.00  -0.27   0.00
   5   6    -0.00   0.00   0.02     0.01   0.01  -0.01    -0.01  -0.01   0.06
   6   6     0.04   0.03   0.01    -0.04  -0.04  -0.02     0.00  -0.00  -0.01
   7   6    -0.24  -0.14   0.10     0.26   0.15  -0.11    -0.01  -0.01  -0.01
   8   1    -0.24   0.29   0.09    -0.21   0.26   0.08    -0.01  -0.00  -0.02
   9   1    -0.37   0.11   0.02    -0.33   0.10   0.02    -0.01   0.02  -0.01
  10   1    -0.26   0.10   0.26    -0.23   0.08   0.24    -0.01   0.01   0.02
  11   1     0.02  -0.05   0.03     0.02  -0.05   0.03     0.05   0.02  -0.04
  12   1     0.04  -0.02   0.04     0.04  -0.02   0.04    -0.02  -0.01  -0.06
  13   1     0.01  -0.01  -0.00     0.01   0.01  -0.01    -0.08  -0.08   0.09
  14   1     0.01  -0.00  -0.00     0.00  -0.00  -0.01     0.03   0.05   0.15
  15   1    -0.01  -0.01   0.01    -0.00   0.01  -0.00    -0.18   0.51  -0.34
  16   1     0.01  -0.01  -0.02    -0.00  -0.00  -0.00     0.18   0.51   0.34
  17   1    -0.01  -0.01   0.00     0.01  -0.00  -0.01     0.08  -0.09  -0.10
  18   1    -0.01  -0.00  -0.00     0.00   0.01  -0.01    -0.03   0.05  -0.15
  19   1    -0.04  -0.02  -0.04     0.04   0.02   0.05     0.02  -0.01   0.06
  20   1    -0.02  -0.05  -0.03     0.02   0.06   0.04    -0.05   0.02   0.03
  21   1     0.33   0.10  -0.02    -0.37  -0.12   0.02     0.01   0.03   0.01
  22   1     0.21   0.26  -0.08    -0.24  -0.29   0.09     0.01  -0.00   0.02
  23   1     0.23   0.09  -0.24    -0.25  -0.10   0.26     0.01   0.01  -0.02
                     40                     41                     42
                        a                      a                      a 
 Frequencies --  1492.6112              1500.2553              1501.3059
 Red. masses --     1.9579                 1.8392                 1.8426
 Frc consts  --     0.0000                 0.0000                 0.0000
 IR Inten    --     0.5591                 0.0093                 0.5000
 Raman Activ --     0.0000                 0.0000                 0.0000
 Depolar     --     0.0000                 0.0000                 0.0000
 Atom AN      X      Y      Z        X      Y      Z        X      Y      Z
   1   6     0.02   0.01  -0.03    -0.01  -0.00   0.02    -0.01  -0.05   0.00
   2   6    -0.07  -0.01   0.16     0.04   0.03  -0.15    -0.02  -0.02   0.09
   3   6    -0.03  -0.00   0.10    -0.00  -0.02   0.08     0.03   0.03  -0.16
   4   6    -0.00   0.00   0.01     0.00  -0.07   0.00     0.00   0.00  -0.01
   5   6    -0.03   0.00   0.10     0.00  -0.02  -0.08     0.03  -0.03  -0.15
   6   6    -0.06   0.01   0.16    -0.04   0.03   0.16    -0.02   0.02   0.09
   7   6     0.02  -0.01  -0.03     0.01  -0.00  -0.02    -0.01   0.05   0.00
   8   1     0.00   0.04   0.09    -0.01  -0.02  -0.07     0.03  -0.03   0.01
   9   1    -0.05  -0.07   0.07     0.05   0.03  -0.04    -0.04   0.10  -0.06
  10   1     0.01  -0.03  -0.03    -0.01  -0.01   0.00     0.04   0.11   0.07
  11   1     0.24   0.22  -0.23    -0.22  -0.23   0.24     0.14   0.14  -0.15
  12   1    -0.03  -0.15  -0.37     0.05   0.13   0.37    -0.00  -0.11  -0.23
  13   1     0.14   0.12  -0.15     0.11   0.13  -0.14    -0.23  -0.20   0.25
  14   1    -0.03  -0.10  -0.22    -0.04  -0.08  -0.20     0.06   0.15   0.35
  15   1     0.00  -0.00   0.00    -0.04   0.14  -0.10     0.01  -0.00  -0.01
  16   1     0.00  -0.00  -0.00     0.04   0.14   0.10     0.01  -0.00  -0.01
  17   1     0.14  -0.12  -0.15    -0.11   0.13   0.14    -0.23   0.20   0.25
  18   1    -0.03   0.10  -0.22     0.04  -0.08   0.20     0.06  -0.14   0.35
  19   1    -0.03   0.15  -0.37    -0.05   0.14  -0.37    -0.01   0.11  -0.23
  20   1     0.24  -0.22  -0.23     0.22  -0.24  -0.24     0.14  -0.14  -0.15
  21   1    -0.05   0.07   0.07    -0.05   0.03   0.04    -0.04  -0.10  -0.06
  22   1     0.00  -0.04   0.08     0.01  -0.03   0.07     0.03   0.03   0.01
  23   1     0.01   0.03  -0.02     0.01  -0.01  -0.00     0.04  -0.11   0.07
                     43                     44                     45
                        a                      a                      a 
 Frequencies --  1503.7737              1505.7483              1506.0136
 Red. masses --     1.9136                 1.5347                 1.5460
 Frc consts  --     0.0000                 0.0000                 0.0000
 IR Inten    --     0.1430                 2.6952                 2.2586
 Raman Activ --     0.0000                 0.0000                 0.0000
 Depolar     --     0.0000                 0.0000                 0.0000
 Atom AN      X      Y      Z        X      Y      Z        X      Y      Z
   1   6    -0.01  -0.02   0.05    -0.08  -0.11  -0.04    -0.09  -0.12  -0.04
   2   6     0.05  -0.02  -0.07    -0.02  -0.02  -0.00    -0.02  -0.02  -0.03
   3   6     0.04   0.01  -0.16    -0.00   0.00   0.01    -0.01  -0.00   0.05
   4   6    -0.00   0.08   0.00    -0.00   0.00  -0.00     0.01  -0.00   0.00
   5   6    -0.04   0.01   0.16     0.00   0.00  -0.02    -0.01   0.00   0.04
   6   6    -0.05  -0.02   0.07     0.02  -0.03   0.01    -0.02   0.02  -0.02
   7   6     0.01  -0.02  -0.05     0.09  -0.12   0.04    -0.08   0.10  -0.04
   8   1    -0.02  -0.06  -0.16     0.22  -0.16   0.15     0.25  -0.17   0.17
   9   1     0.07   0.12  -0.11    -0.16   0.24  -0.14    -0.17   0.25  -0.14
  10   1    -0.04   0.04   0.06     0.26   0.37   0.14     0.30   0.40   0.14
  11   1    -0.14  -0.10   0.12     0.02  -0.00  -0.01    -0.01  -0.03   0.02
  12   1    -0.03   0.11   0.19    -0.01   0.00   0.00    -0.01   0.03   0.05
  13   1    -0.22  -0.18   0.23     0.02   0.01  -0.02     0.08   0.05  -0.07
  14   1     0.05   0.15   0.33    -0.02  -0.00  -0.03    -0.03  -0.03  -0.11
  15   1     0.04  -0.12   0.09    -0.00   0.00  -0.00    -0.01   0.00   0.01
  16   1    -0.04  -0.12  -0.09     0.00   0.00  -0.00    -0.01  -0.00   0.01
  17   1     0.22  -0.19  -0.23    -0.03   0.01   0.02     0.07  -0.05  -0.07
  18   1    -0.05   0.15  -0.34     0.02  -0.01   0.04    -0.03   0.03  -0.10
  19   1     0.03   0.11  -0.18     0.01   0.00  -0.01    -0.01  -0.03   0.05
  20   1     0.14  -0.10  -0.12    -0.02  -0.00   0.01    -0.01   0.03   0.02
  21   1    -0.07   0.12   0.12     0.18   0.27   0.15    -0.15  -0.22  -0.12
  22   1     0.02  -0.06   0.16    -0.25  -0.17  -0.17     0.22   0.15   0.15
  23   1     0.04   0.04  -0.06    -0.30   0.41  -0.15     0.26  -0.35   0.12
                     46                     47                     48
                        a                      a                      a 
 Frequencies --  1508.6471              1509.0871              2955.0733
 Red. masses --     1.5998                 1.7027                 1.9516
 Frc consts  --     0.0000                 0.0000                 0.0000
 IR Inten    --     2.0209                 0.3682                21.3578
 Raman Activ --     0.0000                 0.0000                 0.0000
 Depolar     --     0.0000                 0.0000                 0.0000
 Atom AN      X      Y      Z        X      Y      Z        X      Y      Z
   1   6     0.02  -0.06   0.14     0.02  -0.05   0.12     0.00   0.00   0.00
   2   6     0.01  -0.03   0.06    -0.01  -0.02   0.09    -0.00  -0.00  -0.01
   3   6    -0.02   0.01   0.03    -0.02   0.01   0.04    -0.04  -0.05  -0.02
   4   6    -0.00  -0.00   0.01     0.00  -0.01  -0.00     0.12   0.00   0.25
   5   6    -0.02  -0.00   0.03     0.02   0.01  -0.05    -0.04   0.05  -0.02
   6   6     0.01   0.03   0.05     0.00  -0.03  -0.09    -0.00   0.01  -0.01
   7   6     0.02   0.06   0.13    -0.03  -0.06  -0.13     0.00  -0.00   0.00
   8   1    -0.12  -0.10  -0.44    -0.11  -0.08  -0.38    -0.00  -0.00   0.00
   9   1     0.20   0.30  -0.28     0.17   0.26  -0.24    -0.00  -0.00  -0.00
  10   1    -0.17   0.05   0.16    -0.15   0.03   0.14     0.00  -0.00   0.00
  11   1     0.02   0.05  -0.03     0.07   0.09  -0.08     0.01   0.03   0.03
  12   1    -0.03  -0.01  -0.05    -0.02  -0.05  -0.13    -0.01  -0.02   0.01
  13   1     0.06   0.05  -0.06     0.08   0.06  -0.08     0.06   0.11   0.15
  14   1    -0.01  -0.04  -0.09    -0.01  -0.06  -0.12     0.09   0.09  -0.06
  15   1     0.00   0.00  -0.00    -0.00  -0.00   0.00    -0.22  -0.39  -0.45
  16   1     0.00  -0.00  -0.00     0.00   0.00  -0.00    -0.22   0.38  -0.45
  17   1     0.05  -0.04  -0.06    -0.08   0.06   0.08     0.06  -0.11   0.14
  18   1    -0.01   0.04  -0.08     0.01  -0.06   0.12     0.08  -0.08  -0.05
  19   1    -0.03   0.00  -0.04     0.02  -0.05   0.13    -0.01   0.01   0.01
  20   1     0.01  -0.04  -0.03    -0.07   0.09   0.08     0.01  -0.03   0.04
  21   1     0.18  -0.28  -0.26    -0.18   0.28   0.26    -0.00   0.00  -0.00
  22   1    -0.11   0.09  -0.41     0.12  -0.09   0.42    -0.00   0.00   0.00
  23   1    -0.15  -0.04   0.15     0.17   0.04  -0.15     0.00   0.00   0.00
                     49                     50                     51
                        a                      a                      a 
 Frequencies --  2956.3241              2958.6562              2967.6743
 Red. masses --     1.8093                 1.8770                 1.7657
 Frc consts  --     0.0000                 0.0000                 0.0000
 IR Inten    --     2.2726                30.8176                 3.5933
 Raman Activ --     0.0000                 0.0000                 0.0000
 Depolar     --     0.0000                 0.0000                 0.0000
 Atom AN      X      Y      Z        X      Y      Z        X      Y      Z
   1   6    -0.00   0.00  -0.00    -0.00  -0.00  -0.01    -0.01  -0.01  -0.01
   2   6     0.04   0.05   0.02     0.04   0.06   0.04     0.07   0.12   0.10
   3   6    -0.12  -0.12   0.01    -0.12  -0.12   0.02     0.01   0.00  -0.02
   4   6    -0.00   0.07  -0.00    -0.04   0.00  -0.06    -0.00  -0.10  -0.00
   5   6     0.12  -0.12  -0.01    -0.12   0.12   0.02    -0.02   0.01   0.02
   6   6    -0.04   0.05  -0.02     0.04  -0.06   0.04    -0.07   0.12  -0.10
   7   6     0.00   0.00   0.00    -0.00   0.00  -0.01     0.01  -0.01   0.01
   8   1     0.00  -0.00  -0.00     0.00   0.00  -0.00     0.03   0.03  -0.02
   9   1     0.00   0.01   0.01     0.01   0.02   0.02     0.01   0.03   0.05
  10   1     0.00  -0.00   0.00     0.00  -0.01   0.01     0.00  -0.01   0.01
  11   1    -0.04  -0.09  -0.13    -0.07  -0.14  -0.20    -0.15  -0.31  -0.43
  12   1    -0.10  -0.11   0.06    -0.09  -0.10   0.06    -0.11  -0.11   0.07
  13   1     0.06   0.11   0.17     0.05   0.09   0.15     0.03   0.05   0.06
  14   1     0.37   0.35  -0.21     0.38   0.36  -0.21    -0.07  -0.07   0.04
  15   1    -0.09  -0.13  -0.18     0.06   0.09   0.11     0.12   0.18   0.25
  16   1     0.09  -0.14   0.19     0.06  -0.09   0.11    -0.12   0.18  -0.25
  17   1    -0.06   0.12  -0.18     0.05  -0.09   0.15    -0.03   0.05  -0.06
  18   1    -0.37   0.35   0.21     0.37  -0.36  -0.21     0.07  -0.07  -0.04
  19   1     0.10  -0.11  -0.06    -0.09   0.10   0.06     0.11  -0.11  -0.07
  20   1     0.04  -0.09   0.13    -0.07   0.15  -0.20     0.15  -0.31   0.43
  21   1    -0.00   0.01  -0.01     0.01  -0.02   0.02    -0.01   0.03  -0.05
  22   1    -0.00  -0.00   0.00     0.00  -0.00  -0.00    -0.03   0.03   0.02
  23   1    -0.00  -0.00  -0.00     0.00   0.01   0.01    -0.00  -0.01  -0.01
                     52                     53                     54
                        a                      a                      a 
 Frequencies --  2970.2882              2975.5903              2986.3035
 Red. masses --     1.8126                 1.5679                 1.6652
 Frc consts  --     0.0000                 0.0000                 0.0000
 IR Inten    --    52.5005                93.2655                28.1529
 Raman Activ --     0.0000                 0.0000                 0.0000
 Depolar     --     0.0000                 0.0000                 0.0000
 Atom AN      X      Y      Z        X      Y      Z        X      Y      Z
   1   6    -0.01  -0.01  -0.01    -0.01  -0.01  -0.00     0.01   0.02  -0.00
   2   6     0.07   0.12   0.10     0.01   0.03   0.06    -0.08  -0.09   0.06
   3   6     0.05   0.05  -0.04     0.05   0.06  -0.03    -0.03  -0.05  -0.08
   4   6     0.02  -0.00   0.03    -0.00   0.17   0.00    -0.02  -0.00  -0.04
   5   6     0.05  -0.05  -0.04    -0.05   0.06   0.03    -0.03   0.05  -0.08
   6   6     0.07  -0.12   0.10    -0.01   0.03  -0.05    -0.08   0.09   0.06
   7   6    -0.01   0.01  -0.01     0.01  -0.01   0.00     0.01  -0.02  -0.00
   8   1     0.03   0.03  -0.02     0.02   0.02  -0.01    -0.04  -0.04   0.02
   9   1     0.01   0.04   0.05     0.01   0.01   0.02    -0.01  -0.02  -0.03
  10   1     0.00  -0.01   0.01     0.00  -0.01   0.00     0.01  -0.01   0.02
  11   1    -0.16  -0.33  -0.45    -0.07  -0.15  -0.20    -0.04  -0.06  -0.06
  12   1    -0.09  -0.09   0.07     0.03   0.03  -0.00     0.34   0.38  -0.16
  13   1     0.03   0.04   0.04     0.02   0.02   0.02     0.14   0.23   0.30
  14   1    -0.21  -0.20   0.11    -0.22  -0.21   0.12    -0.05  -0.05   0.01
  15   1    -0.03  -0.05  -0.06    -0.20  -0.30  -0.41     0.03   0.05   0.06
  16   1    -0.03   0.05  -0.06     0.20  -0.30   0.41     0.03  -0.05   0.06
  17   1     0.03  -0.04   0.04    -0.02   0.02  -0.02     0.14  -0.22   0.29
  18   1    -0.21   0.20   0.11     0.22  -0.20  -0.12    -0.04   0.05   0.01
  19   1    -0.09   0.09   0.06    -0.03   0.03   0.00     0.34  -0.38  -0.17
  20   1    -0.16   0.32  -0.45     0.07  -0.15   0.20    -0.04   0.07  -0.07
  21   1     0.01  -0.04   0.05    -0.01   0.01  -0.02    -0.01   0.02  -0.03
  22   1     0.03  -0.03  -0.02    -0.02   0.02   0.01    -0.05   0.04   0.02
  23   1     0.00   0.01   0.01    -0.00  -0.01  -0.00     0.01   0.01   0.02
                     55                     56                     57
                        a                      a                      a 
 Frequencies --  2988.0135              2992.6783              2995.7702
 Red. masses --     1.5553                 1.6936                 1.5924
 Frc consts  --     0.0000                 0.0000                 0.0000
 IR Inten    --     0.0961                42.0628               122.3378
 Raman Activ --     0.0000                 0.0000                 0.0000
 Depolar     --     0.0000                 0.0000                 0.0000
 Atom AN      X      Y      Z        X      Y      Z        X      Y      Z
   1   6    -0.00   0.01  -0.02    -0.01  -0.03   0.00     0.00  -0.02   0.03
   2   6    -0.04  -0.03   0.08     0.08   0.09  -0.05     0.04   0.03  -0.07
   3   6     0.00   0.04   0.12     0.04   0.07   0.08    -0.01  -0.04  -0.11
   4   6    -0.00   0.01   0.00     0.00   0.03   0.00    -0.02   0.00  -0.06
   5   6    -0.00   0.04  -0.12    -0.04   0.07  -0.08    -0.01   0.04  -0.12
   6   6     0.04  -0.03  -0.08    -0.08   0.09   0.05     0.04  -0.03  -0.07
   7   6     0.00   0.01   0.02     0.01  -0.03  -0.00     0.00   0.01   0.03
   8   1    -0.04  -0.04   0.02     0.06   0.06  -0.03     0.05   0.05  -0.02
   9   1     0.01   0.03   0.04     0.01   0.02   0.04    -0.02  -0.04  -0.05
  10   1     0.02  -0.03   0.03    -0.01   0.01  -0.02    -0.03   0.04  -0.05
  11   1    -0.08  -0.15  -0.18     0.03   0.05   0.04     0.07   0.13   0.16
  12   1     0.23   0.26  -0.10    -0.33  -0.36   0.16    -0.23  -0.25   0.10
  13   1    -0.17  -0.28  -0.35    -0.15  -0.24  -0.31     0.17   0.28   0.35
  14   1     0.15   0.15  -0.07     0.00   0.01   0.01    -0.13  -0.13   0.05
  15   1    -0.01  -0.01  -0.01    -0.03  -0.04  -0.06     0.05   0.08   0.09
  16   1     0.01  -0.01   0.01     0.03  -0.04   0.06     0.05  -0.08   0.09
  17   1     0.17  -0.28   0.35     0.14  -0.24   0.31     0.17  -0.29   0.36
  18   1    -0.15   0.15   0.06    -0.00   0.01  -0.01    -0.13   0.13   0.05
  19   1    -0.22   0.25   0.10     0.33  -0.37  -0.16    -0.23   0.25   0.10
  20   1     0.07  -0.14   0.17    -0.03   0.05  -0.05     0.07  -0.13   0.16
  21   1    -0.01   0.03  -0.03    -0.01   0.02  -0.04    -0.02   0.04  -0.05
  22   1     0.04  -0.04  -0.02    -0.06   0.06   0.03     0.05  -0.05  -0.02
  23   1    -0.02  -0.03  -0.03     0.02   0.01   0.02    -0.03  -0.04  -0.05
                     58                     59                     60
                        a                      a                      a 
 Frequencies --  3027.5943              3028.3121              3030.4063
 Red. masses --     1.9600                 1.9599                 1.9024
 Frc consts  --     0.0000                 0.0000                 0.0000
 IR Inten    --    51.4184                69.5099                21.0429
 Raman Activ --     0.0000                 0.0000                 0.0000
 Depolar     --     0.0000                 0.0000                 0.0000
 Atom AN      X      Y      Z        X      Y      Z        X      Y      Z
   1   6     0.11   0.15   0.05    -0.13  -0.16  -0.08     0.00  -0.10   0.18
   2   6     0.02   0.03   0.01    -0.02  -0.03  -0.01    -0.01  -0.01   0.02
   3   6     0.00   0.01   0.00    -0.01  -0.01  -0.01    -0.00  -0.00   0.01
   4   6     0.00  -0.00   0.00    -0.00  -0.00  -0.00    -0.00  -0.00  -0.00
   5   6     0.01  -0.01   0.00     0.01  -0.01   0.01     0.00  -0.00  -0.01
   6   6     0.02  -0.03   0.01     0.02  -0.03   0.01     0.01  -0.01  -0.02
   7   6     0.13  -0.17   0.06     0.11  -0.13   0.07    -0.00  -0.09  -0.18
   8   1    -0.28  -0.30   0.15     0.30   0.31  -0.17     0.28   0.28  -0.11
   9   1    -0.11  -0.23  -0.34     0.14   0.30   0.43    -0.09  -0.20  -0.22
  10   1     0.02   0.02   0.01     0.01  -0.06   0.03    -0.20   0.25  -0.30
  11   1    -0.01  -0.03  -0.04     0.02   0.04   0.06    -0.01  -0.03  -0.03
  12   1    -0.05  -0.05   0.02     0.06   0.07  -0.03     0.05   0.06  -0.02
  13   1    -0.01  -0.01  -0.01     0.02   0.03   0.04    -0.01  -0.02  -0.02
  14   1    -0.01  -0.01   0.01     0.01   0.01  -0.01     0.02   0.03  -0.01
  15   1    -0.00  -0.00  -0.01     0.00   0.01   0.01     0.00   0.00   0.00
  16   1    -0.00   0.01  -0.01    -0.00   0.01  -0.01    -0.00   0.00  -0.00
  17   1    -0.01   0.01  -0.02    -0.02   0.02  -0.03     0.01  -0.02   0.02
  18   1    -0.01   0.01   0.01    -0.01   0.01   0.01    -0.02   0.03   0.01
  19   1    -0.06   0.06   0.03    -0.05   0.06   0.03    -0.05   0.06   0.02
  20   1    -0.02   0.03  -0.05    -0.02   0.03  -0.05     0.02  -0.03   0.03
  21   1    -0.13   0.28  -0.40    -0.12   0.26  -0.37     0.09  -0.20   0.22
  22   1    -0.33   0.35   0.18    -0.25   0.26   0.14    -0.28   0.28   0.11
  23   1     0.02  -0.03   0.01    -0.01  -0.05  -0.03     0.19   0.24   0.29
                     61                     62                     63
                        a                      a                      a 
 Frequencies --  3030.9684              3036.1196              3036.6986
 Red. masses --     1.8985                 1.2880                 1.2894
 Frc consts  --     0.0000                 0.0000                 0.0000
 IR Inten    --   115.1334                45.7539                19.9899
 Raman Activ --     0.0000                 0.0000                 0.0000
 Depolar     --     0.0000                 0.0000                 0.0000
 Atom AN      X      Y      Z        X      Y      Z        X      Y      Z
   1   6     0.02  -0.08   0.18     0.09  -0.07   0.00     0.09  -0.07   0.00
   2   6    -0.01  -0.01   0.03     0.00  -0.00  -0.00     0.00  -0.00  -0.00
   3   6    -0.00   0.00   0.02     0.00  -0.00  -0.00     0.00   0.00  -0.00
   4   6     0.00   0.00   0.01    -0.00   0.00  -0.00    -0.00   0.00  -0.00
   5   6    -0.00  -0.00   0.02    -0.00   0.00  -0.00    -0.00   0.00   0.00
   6   6    -0.01   0.01   0.03     0.00   0.00  -0.00    -0.00  -0.00   0.00
   7   6     0.02   0.07   0.18     0.09   0.07   0.01    -0.09  -0.07  -0.01
   8   1     0.24   0.24  -0.09    -0.21  -0.24   0.11    -0.19  -0.23   0.10
   9   1    -0.10  -0.23  -0.26     0.10   0.18   0.26     0.10   0.18   0.25
  10   1    -0.20   0.25  -0.29    -0.22   0.30  -0.38    -0.22   0.29  -0.36
  11   1    -0.02  -0.04  -0.05     0.00   0.00   0.00     0.00   0.00   0.00
  12   1     0.05   0.06  -0.02    -0.00  -0.00   0.00    -0.00  -0.00  -0.00
  13   1    -0.02  -0.04  -0.04     0.00   0.01   0.01     0.00   0.01   0.01
  14   1     0.03   0.03  -0.01    -0.00  -0.00   0.00    -0.01  -0.01   0.00
  15   1    -0.01  -0.01  -0.01     0.00   0.00   0.00    -0.00  -0.00  -0.00
  16   1    -0.01   0.01  -0.01     0.00  -0.00   0.00     0.00  -0.00   0.00
  17   1    -0.02   0.04  -0.04     0.00  -0.00   0.01    -0.00   0.01  -0.01
  18   1     0.03  -0.03  -0.01    -0.00   0.00   0.00     0.00  -0.01  -0.00
  19   1     0.05  -0.06  -0.02    -0.00   0.00  -0.00     0.00  -0.00   0.00
  20   1    -0.02   0.04  -0.05     0.00  -0.00   0.00    -0.00   0.00  -0.00
  21   1    -0.10   0.23  -0.27     0.10  -0.17   0.25    -0.10   0.18  -0.26
  22   1     0.24  -0.25  -0.09    -0.19   0.22   0.10     0.20  -0.23  -0.11
  23   1    -0.19  -0.24  -0.29    -0.22  -0.29  -0.37     0.23   0.31   0.39
