 Entering Gaussian System
 *********************************************
 Gaussian 98:
 frequency output generated by the xtb code
 *********************************************
                         Standard orientation:
 --------------------------------------------------------------------
  Center     Atomic     Atomic              Coordinates (Angstroms)
  Number     Number      Type              X           Y           Z
 --------------------------------------------------------------------
    1          6             0       -3.081867    0.970211    0.128214
    2          6             0       -1.851604    0.286778   -0.456742
    3          6             0       -1.154955   -0.595659    0.576583
    4          6             0        0.000212   -1.416676    0.000945
    5          6             0        1.154444   -0.595271   -0.575977
    6          6             0        1.851796    0.287600    0.456476
    7          6             0        3.080380    0.972519   -0.130266
    8          1             0       -3.801122    0.231555    0.476060
    9          1             0       -2.803665    1.598314    0.972081
   10          1             0       -3.566049    1.594803   -0.619126
   11          1             0       -2.148522   -0.325577   -1.311578
   12          1             0       -1.160378    1.050224   -0.817116
   13          1             0       -0.793968    0.024894    1.398587
   14          1             0       -1.889339   -1.290013    0.993705
   15          1             0       -0.391087   -2.064219   -0.788174
   16          1             0        0.392227   -2.062570    0.791065
   17          1             0        0.792375    0.024955   -1.397738
   18          1             0        1.888743   -1.289355   -0.993698
   19          1             0        1.160378    1.050161    0.818345
   20          1             0        2.150786   -0.324729    1.310615
   21          1             0        2.799727    1.602929   -0.971612
   22          1             0        3.798454    0.234703   -0.482341
   23          1             0        3.566936    1.594997    0.617277
 --------------------------------------------------------------------
     1 basis functions        1 primitive gaussians
     1 alpha electrons        1 beta electrons
 
 Harmonic frequencies (cm**-1), IR intensities (KM/Mole),
 Raman scattering activities (A**4/amu), Raman depolarization ratios,
 reduced masses (AMU), force constants (mDyne/A) and normal coordinates:
                      1                      2                      3
                        a                      a                      a 
 Frequencies --    46.7322                69.1047                73.5946
 Red. masses --    99.0000                99.0000                99.0000
 Frc consts  --    99.0000                99.0000                99.0000
 IR Inten    --    99.0000                99.0000                99.0000
 Raman Activ --     0.0000                 0.0000                 0.0000
 Depolar     --     0.0000                 0.0000                 0.0000
 Atom AN      X      Y      Z        X      Y      Z        X      Y      Z
   1   6     0.33   0.20   0.04     0.15   0.15   0.20    -0.21  -0.28  -0.02
   2   6     0.30   0.12   0.07    -0.22  -0.28  -0.08     0.16   0.25   0.15
   3   6    -0.01  -0.22  -0.02     0.03  -0.06  -0.07     0.02   0.04   0.05
   4   6     0.00  -0.23   0.00     0.05   0.00  -0.12    -0.00   0.04   0.00
   5   6     0.01  -0.22   0.02     0.03   0.06  -0.07    -0.03   0.04  -0.05
   6   6    -0.30   0.12  -0.07    -0.22   0.28  -0.08    -0.15   0.24  -0.14
   7   6    -0.33   0.20  -0.04     0.15  -0.15   0.20     0.21  -0.28   0.02
   8   1     0.04   0.07  -0.07     0.06   0.11   0.24    -0.06  -0.17  -0.18
   9   1     0.09  -0.01   0.07     0.18   0.13  -0.05    -0.20  -0.18   0.11
  10   1     0.16   0.13   0.03    -0.03  -0.02   0.05    -0.02  -0.01   0.02
  11   1     0.10   0.11  -0.03    -0.19  -0.14   0.07     0.17   0.14  -0.05
  12   1     0.14   0.03   0.10    -0.06  -0.15  -0.18     0.03   0.16   0.19
  13   1    -0.02  -0.14   0.06     0.02   0.02  -0.06     0.00  -0.04   0.05
  14   1    -0.05  -0.07  -0.09     0.05  -0.02   0.04    -0.01   0.00  -0.03
  15   1     0.01  -0.07  -0.00     0.02   0.00  -0.04    -0.01   0.01   0.00
  16   1    -0.01  -0.07   0.00     0.02  -0.00  -0.04     0.01   0.01  -0.00
  17   1     0.02  -0.14  -0.06     0.02  -0.03  -0.06    -0.00  -0.04  -0.05
  18   1     0.05  -0.07   0.09     0.05   0.02   0.04     0.01   0.00   0.03
  19   1    -0.14   0.03  -0.10    -0.06   0.15  -0.18    -0.03   0.16  -0.19
  20   1    -0.10   0.11   0.03    -0.20   0.15   0.07    -0.17   0.14   0.05
  21   1    -0.09  -0.01  -0.07     0.19  -0.13  -0.05     0.19  -0.17  -0.11
  22   1    -0.04   0.07   0.07     0.06  -0.12   0.24     0.06  -0.17   0.18
  23   1    -0.16   0.13  -0.03    -0.03   0.02   0.05     0.02  -0.01  -0.02
                      4                      5                      6
                        a                      a                      a 
 Frequencies --   234.7079               184.7893               242.7111
 Red. masses --    99.0000                99.0000                99.0000
 Frc consts  --    99.0000                99.0000                99.0000
 IR Inten    --    99.0000                99.0000                99.0000
 Raman Activ --     0.0000                 0.0000                 0.0000
 Depolar     --     0.0000                 0.0000                 0.0000
 Atom AN      X      Y      Z        X      Y      Z        X      Y      Z
   1   6    -0.01   0.03  -0.09    -0.13  -0.12   0.13     0.04   0.05  -0.12
   2   6     0.11   0.08   0.11    -0.04   0.17  -0.03    -0.01  -0.19   0.06
   3   6    -0.08  -0.16   0.04     0.23   0.37  -0.05     0.14   0.10   0.20
   4   6    -0.02  -0.00  -0.07    -0.07  -0.00  -0.13     0.00   0.04   0.00
   5   6    -0.08   0.16   0.04     0.23  -0.37  -0.05    -0.14   0.10  -0.20
   6   6     0.11  -0.08   0.11    -0.04  -0.17  -0.04     0.01  -0.19  -0.06
   7   6    -0.01  -0.03  -0.09    -0.13   0.12   0.13    -0.04   0.05   0.12
   8   1     0.14   0.00   0.26     0.07  -0.09   0.15    -0.16   0.06  -0.29
   9   1    -0.01   0.29  -0.24    -0.04   0.06  -0.03    -0.02  -0.20   0.13
  10   1    -0.17  -0.28  -0.16    -0.17  -0.15   0.03     0.23   0.24   0.01
  11   1     0.08   0.06  -0.01    -0.01   0.01   0.01    -0.02  -0.12   0.07
  12   1     0.05   0.04   0.10    -0.07   0.08  -0.05    -0.01  -0.09  -0.06
  13   1    -0.06  -0.11   0.07     0.15   0.15  -0.09     0.10   0.09  -0.02
  14   1    -0.04  -0.08  -0.08     0.08   0.17   0.10     0.07   0.06   0.16
  15   1     0.01   0.03  -0.05    -0.09   0.05  -0.05    -0.05   0.01   0.03
  16   1     0.01  -0.03  -0.05    -0.09  -0.05  -0.05     0.05   0.01  -0.03
  17   1    -0.06   0.11   0.07     0.15  -0.15  -0.09    -0.10   0.09   0.02
  18   1    -0.04   0.08  -0.08     0.08  -0.16   0.10    -0.07   0.06  -0.16
  19   1     0.05  -0.04   0.10    -0.07  -0.08  -0.05     0.01  -0.09   0.06
  20   1     0.08  -0.06  -0.01    -0.01  -0.01   0.01     0.02  -0.12  -0.07
  21   1    -0.01  -0.29  -0.24    -0.04  -0.06  -0.03     0.02  -0.20  -0.14
  22   1     0.14  -0.00   0.26     0.07   0.09   0.15     0.16   0.06   0.29
  23   1    -0.17   0.28  -0.16    -0.17   0.15   0.03    -0.23   0.24  -0.01
                      7                      8                      9
                        a                      a                      a 
 Frequencies --   208.7699               293.3616               302.7072
 Red. masses --    99.0000                99.0000                99.0000
 Frc consts  --    99.0000                99.0000                99.0000
 IR Inten    --    99.0000                99.0000                99.0000
 Raman Activ --     0.0000                 0.0000                 0.0000
 Depolar     --     0.0000                 0.0000                 0.0000
 Atom AN      X      Y      Z        X      Y      Z        X      Y      Z
   1   6    -0.09   0.03   0.19     0.07  -0.08   0.17     0.25  -0.23   0.13
   2   6    -0.24   0.04  -0.16     0.01   0.14  -0.22     0.17   0.03  -0.28
   3   6    -0.21  -0.08  -0.27    -0.14   0.03  -0.21     0.17   0.21  -0.15
   4   6    -0.00   0.02  -0.00     0.14   0.00   0.37     0.00  -0.02   0.00
   5   6     0.21  -0.08   0.27    -0.14  -0.03  -0.21    -0.18   0.21   0.15
   6   6     0.24   0.04   0.16     0.01  -0.14  -0.22    -0.17   0.03   0.28
   7   6     0.09   0.03  -0.19     0.07   0.08   0.17    -0.25  -0.23  -0.13
   8   1    -0.11   0.01  -0.12     0.10  -0.07   0.12     0.13  -0.12   0.04
   9   1     0.01  -0.19   0.19     0.07  -0.02   0.03     0.13  -0.13   0.07
  10   1     0.05   0.21   0.17    -0.10  -0.04   0.11    -0.02  -0.02   0.13
  11   1    -0.12   0.05  -0.06    -0.00   0.09  -0.09     0.03  -0.01  -0.06
  12   1    -0.06   0.01  -0.04    -0.01   0.07  -0.02     0.00   0.03  -0.11
  13   1    -0.12  -0.04  -0.04    -0.14   0.01  -0.02     0.09   0.12  -0.10
  14   1    -0.06  -0.06  -0.13    -0.07  -0.01  -0.14     0.03   0.13   0.04
  15   1     0.07   0.00  -0.03     0.10  -0.22   0.26     0.01  -0.00  -0.00
  16   1    -0.07   0.00   0.03     0.10   0.22   0.26    -0.00   0.00   0.01
  17   1     0.12  -0.04   0.04    -0.14  -0.01  -0.02    -0.09   0.12   0.10
  18   1     0.06  -0.06   0.13    -0.07   0.00  -0.14    -0.03   0.13  -0.04
  19   1     0.06   0.01   0.04    -0.01  -0.07  -0.02    -0.00   0.03   0.11
  20   1     0.12   0.05   0.06    -0.00  -0.09  -0.09    -0.03  -0.01   0.06
  21   1    -0.01  -0.19  -0.19     0.08   0.02   0.03    -0.12  -0.13  -0.07
  22   1     0.11   0.01   0.12     0.10   0.07   0.12    -0.13  -0.12  -0.04
  23   1    -0.05   0.21  -0.17    -0.10   0.04   0.11     0.01  -0.02  -0.13
                     10                     11                     12
                        a                      a                      a 
 Frequencies --   429.6630               504.6543               757.4391
 Red. masses --    99.0000                99.0000                99.0000
 Frc consts  --    99.0000                99.0000                99.0000
 IR Inten    --    99.0000                99.0000                99.0000
 Raman Activ --     0.0000                 0.0000                 0.0000
 Depolar     --     0.0000                 0.0000                 0.0000
 Atom AN      X      Y      Z        X      Y      Z        X      Y      Z
   1   6     0.27  -0.22   0.03     0.17  -0.13   0.00    -0.03   0.03   0.00
   2   6     0.16  -0.09  -0.15     0.08  -0.12  -0.01     0.04   0.11  -0.05
   3   6    -0.22   0.05   0.13    -0.23   0.04   0.19     0.09   0.12   0.07
   4   6    -0.44  -0.00  -0.03    -0.00   0.57  -0.00     0.15   0.00   0.13
   5   6    -0.22  -0.05   0.13     0.23   0.04  -0.19     0.09  -0.12   0.07
   6   6     0.16   0.09  -0.15    -0.08  -0.12   0.01     0.04  -0.11  -0.05
   7   6     0.27   0.22   0.03    -0.17  -0.13  -0.00    -0.03  -0.03   0.00
   8   1     0.12  -0.10   0.03     0.06  -0.05   0.01     0.04  -0.06  -0.05
   9   1     0.12  -0.10   0.02     0.08  -0.06   0.01    -0.08  -0.01   0.03
  10   1     0.00  -0.04   0.08     0.02  -0.02   0.04    -0.04  -0.00   0.01
  11   1     0.06  -0.04  -0.03     0.04  -0.07   0.01    -0.11  -0.15   0.15
  12   1     0.07  -0.04  -0.03     0.06  -0.07  -0.00    -0.08  -0.02  -0.27
  13   1    -0.04   0.03   0.02    -0.24  -0.03   0.16    -0.20  -0.12   0.23
  14   1    -0.11   0.07   0.04    -0.04  -0.12  -0.11    -0.05  -0.09  -0.31
  15   1    -0.18   0.15  -0.11    -0.04   0.15   0.03    -0.07   0.22  -0.09
  16   1    -0.18  -0.15  -0.11     0.04   0.15  -0.03    -0.07  -0.22  -0.09
  17   1    -0.04  -0.03   0.02     0.24  -0.02  -0.16    -0.20   0.12   0.23
  18   1    -0.11  -0.07   0.04     0.04  -0.12   0.11    -0.05   0.09  -0.31
  19   1     0.07   0.04  -0.03    -0.06  -0.07   0.00    -0.08   0.02  -0.27
  20   1     0.06   0.04  -0.04    -0.04  -0.07  -0.01    -0.11   0.15   0.15
  21   1     0.12   0.10   0.02    -0.08  -0.06  -0.01    -0.08   0.01   0.04
  22   1     0.12   0.10   0.03    -0.06  -0.05  -0.01     0.04   0.06  -0.05
  23   1     0.00   0.04   0.08    -0.02  -0.02  -0.04    -0.04   0.00   0.01
                     13                     14                     15
                        a                      a                      a 
 Frequencies --   827.8249               789.4908              1505.7483
 Red. masses --    99.0000                99.0000                99.0000
 Frc consts  --    99.0000                99.0000                99.0000
 IR Inten    --    99.0000                99.0000                99.0000
 Raman Activ --     0.0000                 0.0000                 0.0000
 Depolar     --     0.0000                 0.0000                 0.0000
 Atom AN      X      Y      Z        X      Y      Z        X      Y      Z
   1   6    -0.10   0.00  -0.02    -0.00   0.03   0.02    -0.08  -0.11  -0.04
   2   6    -0.11  -0.07  -0.17     0.10   0.14   0.06    -0.02  -0.02  -0.00
   3   6     0.07   0.03   0.09     0.13   0.04  -0.04    -0.00   0.00   0.01
   4   6     0.22   0.00   0.18     0.00  -0.06   0.00    -0.00   0.00  -0.00
   5   6     0.07  -0.03   0.09    -0.13   0.04   0.04     0.00   0.00  -0.02
   6   6    -0.11   0.07  -0.17    -0.10   0.14  -0.06     0.02  -0.03   0.01
   7   6    -0.10  -0.00  -0.02     0.00   0.03  -0.02     0.09  -0.12   0.04
   8   1    -0.10   0.14   0.13     0.07  -0.12  -0.11     0.22  -0.16   0.15
   9   1     0.22  -0.03  -0.06    -0.20   0.02   0.06    -0.16   0.24  -0.14
  10   1    -0.02   0.10   0.07    -0.03  -0.06  -0.03     0.26   0.37   0.14
  11   1     0.18   0.10  -0.20    -0.20  -0.18   0.24     0.02  -0.00  -0.01
  12   1    -0.06   0.13   0.20    -0.03  -0.09  -0.35    -0.01   0.00   0.00
  13   1    -0.13   0.08   0.03    -0.03  -0.16   0.15     0.02   0.01  -0.02
  14   1     0.06  -0.05  -0.01    -0.06  -0.02  -0.22    -0.02  -0.00  -0.03
  15   1    -0.05   0.28  -0.13     0.00  -0.01  -0.00    -0.00   0.00  -0.00
  16   1    -0.05  -0.28  -0.13    -0.00  -0.02   0.00     0.00   0.00  -0.00
  17   1    -0.13  -0.08   0.03     0.03  -0.16  -0.15    -0.03   0.01   0.02
  18   1     0.06   0.05  -0.01     0.06  -0.02   0.22     0.02  -0.01   0.04
  19   1    -0.06  -0.13   0.20     0.03  -0.09   0.35     0.01   0.00  -0.01
  20   1     0.18  -0.10  -0.20     0.20  -0.18  -0.24    -0.02  -0.00   0.01
  21   1     0.22   0.03  -0.06     0.20   0.02  -0.06     0.18   0.27   0.15
  22   1    -0.10  -0.14   0.13    -0.07  -0.12   0.11    -0.25  -0.17  -0.17
  23   1    -0.02  -0.10   0.07     0.03  -0.06   0.03    -0.30   0.41  -0.15
                     16                     17                     18
                        a                      a                      a 
 Frequencies --  1506.0136              1508.6471              1509.0871
 Red. masses --    99.0000                99.0000                99.0000
 Frc consts  --    99.0000                99.0000                99.0000
 IR Inten    --    99.0000                99.0000                99.0000
 Raman Activ --     0.0000                 0.0000                 0.0000
 Depolar     --     0.0000                 0.0000                 0.0000
 Atom AN      X      Y      Z        X      Y      Z        X      Y      Z
   1   6    -0.09  -0.12  -0.04     0.02  -0.06   0.14     0.02  -0.05   0.12
   2   6    -0.02  -0.02  -0.03     0.01  -0.03   0.06    -0.01  -0.02   0.09
   3   6    -0.01  -0.00   0.05    -0.02   0.01   0.03    -0.02   0.01   0.04
   4   6     0.01  -0.00   0.00    -0.00  -0.00   0.01     0.00  -0.01  -0.00
   5   6    -0.01   0.00   0.04    -0.02  -0.00   0.03     0.02   0.01  -0.05
   6   6    -0.02   0.02  -0.02     0.01   0.03   0.05     0.00  -0.03  -0.09
   7   6    -0.08   0.10  -0.04     0.02   0.06   0.13    -0.03  -0.06  -0.13
   8   1     0.25  -0.17   0.17    -0.12  -0.10  -0.44    -0.11  -0.08  -0.38
   9   1    -0.17   0.25  -0.14     0.20   0.30  -0.28     0.17   0.26  -0.24
  10   1     0.30   0.40   0.14    -0.17   0.05   0.16    -0.15   0.03   0.14
  11   1    -0.01  -0.03   0.02     0.02   0.05  -0.03     0.07   0.09  -0.08
  12   1    -0.01   0.03   0.05    -0.03  -0.01  -0.05    -0.02  -0.05  -0.13
  13   1     0.08   0.05  -0.07     0.06   0.05  -0.06     0.08   0.06  -0.08
  14   1    -0.03  -0.03  -0.11    -0.01  -0.04  -0.09    -0.01  -0.06  -0.12
  15   1    -0.01   0.00   0.01     0.00   0.00  -0.00    -0.00  -0.00   0.00
  16   1    -0.01  -0.00   0.01     0.00  -0.00  -0.00     0.00   0.00  -0.00
  17   1     0.07  -0.05  -0.07     0.05  -0.04  -0.06    -0.08   0.06   0.08
  18   1    -0.03   0.03  -0.10    -0.01   0.04  -0.08     0.01  -0.06   0.12
  19   1    -0.01  -0.03   0.05    -0.03   0.00  -0.04     0.02  -0.05   0.13
  20   1    -0.01   0.03   0.02     0.01  -0.04  -0.03    -0.07   0.09   0.08
  21   1    -0.15  -0.22  -0.12     0.18  -0.28  -0.26    -0.18   0.28   0.26
  22   1     0.22   0.15   0.15    -0.11   0.09  -0.41     0.12  -0.09   0.42
  23   1     0.26  -0.35   0.12    -0.15  -0.04   0.15     0.17   0.04  -0.15
                     19                     20                     21
                        a                      a                      a 
 Frequencies --   915.7701               907.9511               881.4748
 Red. masses --    99.0000                99.0000                99.0000
 Frc consts  --    99.0000                99.0000                99.0000
 IR Inten    --    99.0000                99.0000                99.0000
 Raman Activ --     0.0000                 0.0000                 0.0000
 Depolar     --     0.0000                 0.0000                 0.0000
 Atom AN      X      Y      Z        X      Y      Z        X      Y      Z
   1   6     0.18   0.01   0.05    -0.07   0.18  -0.03     0.05  -0.11   0.06
   2   6     0.00  -0.02   0.14     0.02   0.10  -0.18     0.00  -0.12   0.18
   3   6    -0.20  -0.06  -0.14    -0.06  -0.21   0.15     0.26   0.03  -0.33
   4   6     0.00   0.15   0.00     0.20  -0.00   0.11     0.00   0.29   0.00
   5   6     0.20  -0.06   0.15    -0.06   0.21   0.14    -0.26   0.03   0.33
   6   6    -0.00  -0.02  -0.14     0.02  -0.10  -0.18    -0.00  -0.12  -0.18
   7   6    -0.18   0.00  -0.05    -0.07  -0.18  -0.02    -0.05  -0.11  -0.06
   8   1     0.11  -0.14  -0.14     0.18  -0.18  -0.07    -0.15   0.14   0.02
   9   1    -0.26   0.07   0.06    -0.13  -0.03   0.08     0.01   0.07  -0.06
  10   1     0.07  -0.14  -0.12    -0.23   0.02   0.11     0.22  -0.05  -0.14
  11   1    -0.19   0.11   0.02    -0.12   0.07  -0.04     0.04   0.01   0.01
  12   1     0.14  -0.13   0.04     0.15  -0.11  -0.06    -0.10   0.08   0.07
  13   1     0.05   0.15  -0.20     0.06   0.08  -0.09     0.01  -0.05  -0.02
  14   1     0.04   0.04   0.20     0.03   0.01   0.21     0.10  -0.08  -0.18
  15   1     0.10   0.04  -0.05     0.10   0.14  -0.11     0.08   0.08  -0.04
  16   1    -0.10   0.04   0.05     0.10  -0.14  -0.11    -0.08   0.08   0.04
  17   1    -0.05   0.15   0.20     0.06  -0.08  -0.10    -0.01  -0.05   0.02
  18   1    -0.04   0.04  -0.20     0.03  -0.01   0.21    -0.10  -0.08   0.18
  19   1    -0.14  -0.13  -0.04     0.15   0.11  -0.06     0.10   0.08  -0.08
  20   1     0.19   0.11  -0.02    -0.12  -0.08  -0.04    -0.04   0.01  -0.01
  21   1     0.25   0.07  -0.06    -0.13   0.03   0.09    -0.02   0.07   0.06
  22   1    -0.11  -0.14   0.14     0.18   0.18  -0.07     0.15   0.14  -0.02
  23   1    -0.07  -0.14   0.12    -0.23  -0.02   0.11    -0.22  -0.05   0.14
                     22                     23                     24
                        a                      a                      a 
 Frequencies --   962.3730              1068.4974              1503.7737
 Red. masses --    99.0000                99.0000                99.0000
 Frc consts  --    99.0000                99.0000                99.0000
 IR Inten    --    99.0000                99.0000                99.0000
 Raman Activ --     0.0000                 0.0000                 0.0000
 Depolar     --     0.0000                 0.0000                 0.0000
 Atom AN      X      Y      Z        X      Y      Z        X      Y      Z
   1   6    -0.15   0.05  -0.13     0.13   0.07  -0.15    -0.01  -0.02   0.05
   2   6     0.03   0.05  -0.06    -0.19  -0.08   0.16     0.05  -0.02  -0.07
   3   6     0.04  -0.02   0.18     0.03   0.19  -0.02     0.04   0.01  -0.16
   4   6    -0.08  -0.00  -0.23     0.02  -0.00  -0.16    -0.00   0.08   0.00
   5   6     0.04   0.02   0.18     0.03  -0.19  -0.02    -0.04   0.01   0.16
   6   6     0.03  -0.05  -0.06    -0.19   0.08   0.16    -0.05  -0.02   0.07
   7   6    -0.15  -0.06  -0.13     0.13  -0.07  -0.15     0.01  -0.02  -0.05
   8   1     0.03   0.01   0.10     0.20  -0.15  -0.05    -0.02  -0.06  -0.16
   9   1     0.23  -0.12  -0.01     0.02  -0.08   0.04     0.07   0.12  -0.11
  10   1    -0.21   0.15   0.20    -0.14   0.02   0.08    -0.04   0.04   0.06
  11   1     0.18  -0.17   0.05    -0.02   0.06  -0.02    -0.14  -0.10   0.12
  12   1    -0.03   0.02  -0.07     0.12  -0.11   0.18    -0.03   0.11   0.19
  13   1     0.14  -0.18   0.13    -0.19   0.08   0.05    -0.22  -0.18   0.23
  14   1    -0.03  -0.01  -0.02     0.22  -0.22  -0.06     0.05   0.15   0.33
  15   1     0.09  -0.22   0.07    -0.14  -0.08   0.10     0.04  -0.12   0.09
  16   1     0.09   0.22   0.07    -0.14   0.08   0.09    -0.04  -0.12  -0.09
  17   1     0.14   0.18   0.13    -0.18  -0.08   0.05     0.22  -0.19  -0.23
  18   1    -0.03   0.01  -0.02     0.22   0.22  -0.06    -0.05   0.15  -0.34
  19   1    -0.03  -0.02  -0.07     0.12   0.11   0.18     0.03   0.11  -0.18
  20   1     0.18   0.17   0.05    -0.02  -0.06  -0.02     0.14  -0.10  -0.12
  21   1     0.23   0.12  -0.01     0.02   0.08   0.04    -0.07   0.12   0.12
  22   1     0.03  -0.01   0.10     0.20   0.15  -0.05     0.02  -0.06   0.16
  23   1    -0.21  -0.15   0.20    -0.14  -0.02   0.08     0.04   0.04  -0.06
                     25                     26                     27
                        a                      a                      a 
 Frequencies --  1489.8966              1492.6112              1501.3059
 Red. masses --    99.0000                99.0000                99.0000
 Frc consts  --    99.0000                99.0000                99.0000
 IR Inten    --    99.0000                99.0000                99.0000
 Raman Activ --     0.0000                 0.0000                 0.0000
 Depolar     --     0.0000                 0.0000                 0.0000
 Atom AN      X      Y      Z        X      Y      Z        X      Y      Z
   1   6     0.01  -0.01   0.01     0.02   0.01  -0.03    -0.01  -0.05   0.00
   2   6    -0.00  -0.00   0.02    -0.07  -0.01   0.16    -0.02  -0.02   0.09
   3   6     0.01  -0.01  -0.06    -0.03  -0.00   0.10     0.03   0.03  -0.16
   4   6     0.00  -0.27   0.00    -0.00   0.00   0.01     0.00   0.00  -0.01
   5   6    -0.01  -0.01   0.06    -0.03   0.00   0.10     0.03  -0.03  -0.15
   6   6     0.00  -0.00  -0.01    -0.06   0.01   0.16    -0.02   0.02   0.09
   7   6    -0.01  -0.01  -0.01     0.02  -0.01  -0.03    -0.01   0.05   0.00
   8   1    -0.01  -0.00  -0.02     0.00   0.04   0.09     0.03  -0.03   0.01
   9   1    -0.01   0.02  -0.01    -0.05  -0.07   0.07    -0.04   0.10  -0.06
  10   1    -0.01   0.01   0.02     0.01  -0.03  -0.03     0.04   0.11   0.07
  11   1     0.05   0.02  -0.04     0.24   0.22  -0.23     0.14   0.14  -0.15
  12   1    -0.02  -0.01  -0.06    -0.03  -0.15  -0.37    -0.00  -0.11  -0.23
  13   1    -0.08  -0.08   0.09     0.14   0.12  -0.15    -0.23  -0.20   0.25
  14   1     0.03   0.05   0.15    -0.03  -0.10  -0.22     0.06   0.15   0.35
  15   1    -0.18   0.51  -0.34     0.00  -0.00   0.00     0.01  -0.00  -0.01
  16   1     0.18   0.51   0.34     0.00  -0.00  -0.00     0.01  -0.00  -0.01
  17   1     0.08  -0.09  -0.10     0.14  -0.12  -0.15    -0.23   0.20   0.25
  18   1    -0.03   0.05  -0.15    -0.03   0.10  -0.22     0.06  -0.14   0.35
  19   1     0.02  -0.01   0.06    -0.03   0.15  -0.37    -0.01   0.11  -0.23
  20   1    -0.05   0.02   0.03     0.24  -0.22  -0.23     0.14  -0.14  -0.15
  21   1     0.01   0.03   0.01    -0.05   0.07   0.07    -0.04  -0.10  -0.06
  22   1     0.01  -0.00   0.02     0.00  -0.04   0.08     0.03   0.03   0.01
  23   1     0.01   0.01  -0.02     0.01   0.03  -0.02     0.04  -0.11   0.07
                     28                     29                     30
                        a                      a                      a 
 Frequencies --  1225.0379              1500.2553              1158.4228
 Red. masses --    99.0000                99.0000                99.0000
 Frc consts  --    99.0000                99.0000                99.0000
 IR Inten    --    99.0000                99.0000                99.0000
 Raman Activ --     0.0000                 0.0000                 0.0000
 Depolar     --     0.0000                 0.0000                 0.0000
 Atom AN      X      Y      Z        X      Y      Z        X      Y      Z
   1   6    -0.12  -0.13  -0.11    -0.01  -0.00   0.02    -0.05  -0.10   0.09
   2   6     0.17   0.16   0.19     0.04   0.03  -0.15     0.10   0.18  -0.22
   3   6    -0.04  -0.12  -0.15    -0.00  -0.02   0.08    -0.04  -0.30   0.14
   4   6    -0.00   0.03   0.00     0.00  -0.07   0.00    -0.00   0.31  -0.00
   5   6     0.04  -0.12   0.15     0.00  -0.02  -0.08     0.04  -0.30  -0.14
   6   6    -0.17   0.16  -0.19    -0.04   0.03   0.16    -0.10   0.18   0.22
   7   6     0.12  -0.13   0.11     0.01  -0.00  -0.02     0.05  -0.10  -0.09
   8   1    -0.08   0.09   0.11    -0.01  -0.02  -0.07    -0.14   0.11   0.02
   9   1     0.20  -0.07  -0.07     0.05   0.03  -0.04     0.01   0.05  -0.04
  10   1    -0.00   0.09   0.06    -0.01  -0.01   0.00     0.12  -0.02  -0.07
  11   1    -0.15   0.01   0.13    -0.22  -0.23   0.24    -0.07   0.00   0.00
  12   1     0.07  -0.07  -0.12     0.05   0.13   0.37    -0.09   0.09  -0.18
  13   1    -0.14   0.19  -0.15     0.11   0.13  -0.14     0.26  -0.14  -0.03
  14   1     0.02   0.01   0.06    -0.04  -0.08  -0.20    -0.02   0.01   0.17
  15   1    -0.27   0.01   0.13    -0.04   0.14  -0.10     0.06   0.07  -0.02
  16   1     0.27   0.01  -0.13     0.04   0.14   0.10    -0.06   0.07   0.02
  17   1     0.14   0.19   0.15    -0.11   0.13   0.14    -0.26  -0.14   0.04
  18   1    -0.02   0.01  -0.06     0.04  -0.08   0.20     0.02   0.01  -0.17
  19   1    -0.07  -0.07   0.12    -0.05   0.14  -0.37     0.09   0.09   0.18
  20   1     0.15   0.01  -0.13     0.22  -0.24  -0.24     0.06  -0.00  -0.01
  21   1    -0.20  -0.07   0.07    -0.05   0.03   0.04    -0.01   0.05   0.04
  22   1     0.08   0.09  -0.12     0.01  -0.03   0.07     0.14   0.11  -0.03
  23   1     0.00   0.09  -0.06     0.01  -0.01  -0.00    -0.12  -0.02   0.06
                     31                     32                     33
                        a                      a                      a 
 Frequencies --   996.9249              1161.8282              1237.4813
 Red. masses --    99.0000                99.0000                99.0000
 Frc consts  --    99.0000                99.0000                99.0000
 IR Inten    --    99.0000                99.0000                99.0000
 Raman Activ --     0.0000                 0.0000                 0.0000
 Depolar     --     0.0000                 0.0000                 0.0000
 Atom AN      X      Y      Z        X      Y      Z        X      Y      Z
   1   6    -0.12   0.19  -0.04    -0.05  -0.01  -0.14    -0.14  -0.18  -0.04
   2   6     0.03  -0.05  -0.11     0.07  -0.01   0.32     0.18   0.23   0.02
   3   6     0.30  -0.21  -0.05    -0.15   0.04  -0.30    -0.05  -0.07   0.04
   4   6    -0.00   0.30  -0.00     0.18   0.00   0.19     0.01  -0.00  -0.08
   5   6    -0.30  -0.21   0.05    -0.15  -0.04  -0.30    -0.05   0.07   0.04
   6   6    -0.03  -0.06   0.11     0.07   0.01   0.32     0.17  -0.23   0.01
   7   6     0.12   0.19   0.04    -0.05   0.01  -0.14    -0.14   0.18  -0.04
   8   1     0.12  -0.11  -0.02     0.05  -0.01   0.06    -0.15   0.13   0.11
   9   1    -0.05  -0.04   0.06     0.15  -0.10  -0.01     0.17  -0.02  -0.09
  10   1    -0.22   0.06   0.12    -0.10   0.08   0.10     0.07   0.07   0.01
  11   1    -0.01   0.06  -0.08     0.06  -0.13   0.16    -0.21   0.05   0.09
  12   1     0.13  -0.09   0.04     0.05  -0.07   0.01     0.16  -0.12  -0.14
  13   1     0.03  -0.01  -0.02     0.02   0.07  -0.14    -0.12   0.14  -0.06
  14   1     0.25  -0.21   0.02    -0.13   0.15  -0.01     0.20  -0.19   0.09
  15   1    -0.05   0.07   0.03     0.04   0.16  -0.09    -0.11  -0.03   0.06
  16   1     0.05   0.07  -0.03     0.04  -0.16  -0.09    -0.11   0.03   0.06
  17   1    -0.03  -0.01   0.02     0.02  -0.07  -0.14    -0.12  -0.14  -0.06
  18   1    -0.25  -0.21  -0.02    -0.13  -0.15  -0.01     0.20   0.19   0.09
  19   1    -0.13  -0.09  -0.04     0.05   0.07   0.01     0.16   0.12  -0.14
  20   1     0.01   0.06   0.08     0.06   0.13   0.16    -0.21  -0.06   0.09
  21   1     0.05  -0.04  -0.06     0.15   0.10  -0.01     0.17   0.02  -0.09
  22   1    -0.12  -0.11   0.02     0.05   0.01   0.06    -0.15  -0.13   0.11
  23   1     0.22   0.06  -0.12    -0.10  -0.08   0.10     0.07  -0.07   0.01
                     34                     35                     36
                        a                      a                      a 
 Frequencies --  1061.1982              1087.5977              1098.0790
 Red. masses --    99.0000                99.0000                99.0000
 Frc consts  --    99.0000                99.0000                99.0000
 IR Inten    --    99.0000                99.0000                99.0000
 Raman Activ --     0.0000                 0.0000                 0.0000
 Depolar     --     0.0000                 0.0000                 0.0000
 Atom AN      X      Y      Z        X      Y      Z        X      Y      Z
   1   6    -0.02   0.01   0.20    -0.25   0.17   0.15     0.27  -0.12  -0.18
   2   6     0.04  -0.05  -0.23     0.30  -0.26  -0.07    -0.37   0.22   0.05
   3   6     0.10   0.00   0.11     0.11   0.00  -0.15     0.10  -0.06   0.09
   4   6    -0.00  -0.12   0.00    -0.22  -0.00   0.08     0.00  -0.03  -0.00
   5   6    -0.10   0.00  -0.11     0.11  -0.00  -0.15    -0.10  -0.06  -0.09
   6   6    -0.04  -0.05   0.23     0.30   0.26  -0.07     0.37   0.22  -0.05
   7   6     0.02   0.01  -0.20    -0.25  -0.17   0.15    -0.27  -0.12   0.18
   8   1    -0.11   0.05  -0.05    -0.05   0.02   0.02     0.12  -0.07  -0.05
   9   1    -0.20   0.13   0.02    -0.13   0.05   0.06     0.10  -0.06  -0.04
  10   1     0.15  -0.09  -0.13    -0.09   0.03   0.04     0.04  -0.03  -0.02
  11   1    -0.10   0.15  -0.14     0.12  -0.06  -0.04    -0.17   0.14  -0.02
  12   1    -0.01   0.03  -0.00     0.17  -0.13   0.04    -0.14   0.10   0.02
  13   1    -0.24   0.14   0.03    -0.05   0.02  -0.03     0.00  -0.05   0.06
  14   1     0.01  -0.04  -0.05     0.03  -0.04  -0.09     0.10  -0.11  -0.00
  15   1    -0.30  -0.03   0.15    -0.17  -0.00   0.08    -0.11  -0.01   0.05
  16   1     0.30  -0.03  -0.15    -0.17   0.00   0.08     0.11  -0.01  -0.05
  17   1     0.24   0.15  -0.03    -0.05  -0.02  -0.03    -0.00  -0.05  -0.06
  18   1    -0.01  -0.04   0.05     0.03   0.04  -0.09    -0.10  -0.11   0.00
  19   1     0.01   0.03   0.00     0.17   0.13   0.04     0.14   0.10  -0.02
  20   1     0.10   0.15   0.14     0.12   0.06  -0.04     0.17   0.14   0.02
  21   1     0.20   0.13  -0.02    -0.13  -0.05   0.06    -0.10  -0.06   0.04
  22   1     0.11   0.05   0.05    -0.05  -0.02   0.02    -0.12  -0.07   0.05
  23   1    -0.15  -0.09   0.13    -0.09  -0.03   0.04    -0.04  -0.03   0.02
                     37                     38                     39
                        a                      a                      a 
 Frequencies --  1282.5388              1146.5803              1289.3077
 Red. masses --    99.0000                99.0000                99.0000
 Frc consts  --    99.0000                99.0000                99.0000
 IR Inten    --    99.0000                99.0000                99.0000
 Raman Activ --     0.0000                 0.0000                 0.0000
 Depolar     --     0.0000                 0.0000                 0.0000
 Atom AN      X      Y      Z        X      Y      Z        X      Y      Z
   1   6    -0.05  -0.08  -0.03    -0.05   0.02   0.12    -0.04  -0.03  -0.05
   2   6    -0.06  -0.06  -0.02     0.12  -0.09  -0.04    -0.01  -0.13   0.02
   3   6     0.08   0.15   0.04    -0.27   0.26   0.14     0.08   0.05  -0.01
   4   6     0.01  -0.00   0.02     0.36   0.00  -0.38    -0.00   0.11  -0.00
   5   6     0.08  -0.15   0.04    -0.27  -0.26   0.14    -0.08   0.05   0.01
   6   6    -0.06   0.06  -0.02     0.12   0.09  -0.04     0.01  -0.13  -0.02
   7   6    -0.05   0.08  -0.03    -0.05  -0.02   0.12     0.04  -0.04   0.05
   8   1    -0.06   0.04   0.04    -0.05   0.03  -0.00    -0.02   0.02   0.04
   9   1     0.07  -0.02  -0.04    -0.08   0.05   0.02     0.05  -0.03  -0.02
  10   1     0.01   0.01   0.00     0.04  -0.02  -0.03    -0.03   0.02   0.02
  11   1    -0.26   0.23  -0.09     0.09  -0.07   0.00    -0.27   0.24  -0.10
  12   1     0.29  -0.24   0.12     0.08  -0.05   0.02     0.17  -0.14   0.11
  13   1     0.15  -0.18   0.12    -0.17   0.15   0.02     0.20  -0.20   0.08
  14   1    -0.18   0.15  -0.15    -0.06   0.04   0.00    -0.27   0.25  -0.12
  15   1     0.09   0.00  -0.03     0.23  -0.09  -0.09    -0.12   0.05   0.04
  16   1     0.08  -0.00  -0.03     0.23   0.09  -0.09     0.12   0.05  -0.04
  17   1     0.15   0.18   0.12    -0.17  -0.15   0.02    -0.20  -0.21  -0.08
  18   1    -0.18  -0.15  -0.15    -0.06  -0.04   0.00     0.27   0.25   0.12
  19   1     0.29   0.24   0.12     0.08   0.05   0.02    -0.17  -0.14  -0.11
  20   1    -0.25  -0.23  -0.09     0.09   0.07   0.00     0.26   0.24   0.10
  21   1     0.07   0.02  -0.04    -0.08  -0.05   0.02    -0.05  -0.03   0.02
  22   1    -0.06  -0.04   0.04    -0.05  -0.03  -0.00     0.02   0.02  -0.04
  23   1     0.01  -0.01   0.00     0.04   0.02  -0.03     0.03   0.02  -0.02
                     40                     41                     42
                        a                      a                      a 
 Frequencies --  1268.4785              1301.3552              1317.0035
 Red. masses --    99.0000                99.0000                99.0000
 Frc consts  --    99.0000                99.0000                99.0000
 IR Inten    --    99.0000                99.0000                99.0000
 Raman Activ --     0.0000                 0.0000                 0.0000
 Depolar     --     0.0000                 0.0000                 0.0000
 Atom AN      X      Y      Z        X      Y      Z        X      Y      Z
   1   6     0.08   0.14  -0.01    -0.01   0.03  -0.11     0.00   0.04  -0.10
   2   6    -0.02  -0.12   0.07     0.15  -0.15   0.11     0.18  -0.14   0.07
   3   6    -0.03  -0.15  -0.11     0.16  -0.11   0.09     0.11  -0.10   0.13
   4   6    -0.00   0.17   0.00    -0.08  -0.00  -0.16     0.00   0.01  -0.00
   5   6     0.03  -0.16   0.12     0.16   0.11   0.09    -0.11  -0.10  -0.13
   6   6     0.02  -0.12  -0.07     0.15   0.15   0.11    -0.18  -0.14  -0.07
   7   6    -0.08   0.14   0.01    -0.01  -0.03  -0.11    -0.00   0.04   0.10
   8   1     0.11  -0.08  -0.06     0.03   0.00   0.04     0.02   0.01   0.03
   9   1    -0.09  -0.01   0.06     0.01  -0.04   0.01    -0.01  -0.03   0.02
  10   1    -0.08  -0.02   0.02    -0.10   0.05   0.08    -0.10   0.05   0.07
  11   1     0.18  -0.12   0.02    -0.24   0.19  -0.04    -0.22   0.19  -0.05
  12   1    -0.27   0.20  -0.00    -0.20   0.15  -0.03    -0.25   0.20  -0.06
  13   1     0.08  -0.00  -0.10    -0.25   0.20  -0.03    -0.19   0.18  -0.03
  14   1    -0.20   0.17  -0.02    -0.19   0.18  -0.05    -0.10   0.07  -0.03
  15   1    -0.30   0.04   0.15     0.02  -0.09   0.02     0.26   0.02  -0.14
  16   1     0.30   0.04  -0.15     0.02   0.09   0.02    -0.26   0.02   0.14
  17   1    -0.08  -0.00   0.10    -0.25  -0.20  -0.02     0.19   0.18   0.03
  18   1     0.20   0.17   0.02    -0.20  -0.18  -0.05     0.11   0.07   0.03
  19   1     0.27   0.20   0.00    -0.20  -0.15  -0.03     0.25   0.20   0.06
  20   1    -0.18  -0.12  -0.02    -0.24  -0.20  -0.04     0.23   0.19   0.05
  21   1     0.09  -0.01  -0.06     0.01   0.04   0.01     0.01  -0.03  -0.02
  22   1    -0.11  -0.09   0.06     0.03  -0.00   0.04    -0.02   0.01  -0.03
  23   1     0.08  -0.02  -0.02    -0.10  -0.05   0.08     0.10   0.05  -0.07
                     43                     44                     45
                        a                      a                      a 
 Frequencies --  1363.3995              1372.6519              1375.7338
 Red. masses --    99.0000                99.0000                99.0000
 Frc consts  --    99.0000                99.0000                99.0000
 IR Inten    --    99.0000                99.0000                99.0000
 Raman Activ --     0.0000                 0.0000                 0.0000
 Depolar     --     0.0000                 0.0000                 0.0000
 Atom AN      X      Y      Z        X      Y      Z        X      Y      Z
   1   6    -0.01  -0.01  -0.01     0.01  -0.03   0.06     0.02  -0.03   0.04
   2   6    -0.01   0.03   0.02    -0.23   0.19  -0.04    -0.21   0.16  -0.02
   3   6     0.12   0.05  -0.04     0.22  -0.19   0.04     0.25  -0.22   0.05
   4   6    -0.51  -0.00   0.20    -0.03   0.00  -0.09     0.00   0.10   0.00
   5   6     0.12  -0.05  -0.04     0.22   0.19   0.04    -0.25  -0.22  -0.05
   6   6    -0.01  -0.03   0.02    -0.22  -0.19  -0.04     0.21   0.16   0.02
   7   6    -0.01   0.01  -0.01     0.01   0.03   0.06    -0.02  -0.03  -0.04
   8   1     0.01  -0.00   0.01    -0.01  -0.02  -0.04    -0.01  -0.01  -0.03
   9   1     0.01  -0.00  -0.01     0.03   0.02  -0.02     0.02   0.02  -0.02
  10   1     0.01   0.01   0.00     0.06  -0.03  -0.05     0.04  -0.02  -0.03
  11   1     0.01  -0.02   0.02     0.21  -0.16   0.05     0.18  -0.11   0.02
  12   1     0.03  -0.02   0.01     0.20  -0.17   0.04     0.17  -0.15   0.02
  13   1    -0.12   0.09  -0.00    -0.22   0.18  -0.04    -0.21   0.16  -0.02
  14   1     0.13  -0.12  -0.04    -0.20   0.18  -0.05    -0.24   0.24  -0.02
  15   1     0.47  -0.02  -0.23    -0.06  -0.05   0.04     0.13   0.02  -0.06
  16   1     0.47   0.02  -0.23    -0.06   0.05   0.04    -0.13   0.02   0.06
  17   1    -0.12  -0.09  -0.00    -0.22  -0.18  -0.04     0.21   0.16   0.02
  18   1     0.13   0.12  -0.04    -0.20  -0.18  -0.05     0.24   0.24   0.02
  19   1     0.03   0.02   0.01     0.20   0.17   0.04    -0.17  -0.15  -0.02
  20   1     0.01   0.02   0.02     0.21   0.16   0.05    -0.18  -0.11  -0.02
  21   1     0.01   0.00  -0.01     0.03  -0.02  -0.02    -0.02   0.02   0.02
  22   1     0.01   0.00   0.01    -0.01   0.02  -0.04     0.01  -0.01   0.03
  23   1     0.01  -0.01   0.00     0.06   0.03  -0.05    -0.04  -0.02   0.03
                     46                     47                     48
                        a                      a                      a 
 Frequencies --  1416.7338              1416.9408              2958.6562
 Red. masses --    99.0000                99.0000                99.0000
 Frc consts  --    99.0000                99.0000                99.0000
 IR Inten    --    99.0000                99.0000                99.0000
 Raman Activ --     0.0000                 0.0000                 0.0000
 Depolar     --     0.0000                 0.0000                 0.0000
 Atom AN      X      Y      Z        X      Y      Z        X      Y      Z
   1   6     0.26  -0.15  -0.11     0.24  -0.14  -0.10    -0.00  -0.00  -0.01
   2   6    -0.04   0.03  -0.01    -0.04   0.03  -0.01     0.04   0.06   0.04
   3   6     0.00   0.00  -0.02     0.01  -0.01  -0.01    -0.12  -0.12   0.02
   4   6    -0.00   0.00   0.00    -0.00  -0.00   0.01    -0.04   0.00  -0.06
   5   6    -0.00   0.00   0.02     0.01   0.01  -0.01    -0.12   0.12   0.02
   6   6     0.04   0.03   0.01    -0.04  -0.04  -0.02     0.04  -0.06   0.04
   7   6    -0.24  -0.14   0.10     0.26   0.15  -0.11    -0.00   0.00  -0.01
   8   1    -0.24   0.29   0.09    -0.21   0.26   0.08     0.00   0.00  -0.00
   9   1    -0.37   0.11   0.02    -0.33   0.10   0.02     0.01   0.02   0.02
  10   1    -0.26   0.10   0.26    -0.23   0.08   0.24     0.00  -0.01   0.01
  11   1     0.02  -0.05   0.03     0.02  -0.05   0.03    -0.07  -0.14  -0.20
  12   1     0.04  -0.02   0.04     0.04  -0.02   0.04    -0.09  -0.10   0.06
  13   1     0.01  -0.01  -0.00     0.01   0.01  -0.01     0.05   0.09   0.15
  14   1     0.01  -0.00  -0.00     0.00  -0.00  -0.01     0.38   0.36  -0.21
  15   1    -0.01  -0.01   0.01    -0.00   0.01  -0.00     0.06   0.09   0.11
  16   1     0.01  -0.01  -0.02    -0.00  -0.00  -0.00     0.06  -0.09   0.11
  17   1    -0.01  -0.01   0.00     0.01  -0.00  -0.01     0.05  -0.09   0.15
  18   1    -0.01  -0.00  -0.00     0.00   0.01  -0.01     0.37  -0.36  -0.21
  19   1    -0.04  -0.02  -0.04     0.04   0.02   0.05    -0.09   0.10   0.06
  20   1    -0.02  -0.05  -0.03     0.02   0.06   0.04    -0.07   0.15  -0.20
  21   1     0.33   0.10  -0.02    -0.37  -0.12   0.02     0.01  -0.02   0.02
  22   1     0.21   0.26  -0.08    -0.24  -0.29   0.09     0.00  -0.00  -0.00
  23   1     0.23   0.09  -0.24    -0.25  -0.10   0.26     0.00   0.01   0.01
                     49                     50                     51
                        a                      a                      a 
 Frequencies --  2956.3241              2955.0733              2967.6743
 Red. masses --    99.0000                99.0000                99.0000
 Frc consts  --    99.0000                99.0000                99.0000
 IR Inten    --    99.0000                99.0000                99.0000
 Raman Activ --     0.0000                 0.0000                 0.0000
 Depolar     --     0.0000                 0.0000                 0.0000
 Atom AN      X      Y      Z        X      Y      Z        X      Y      Z
   1   6    -0.00   0.00  -0.00     0.00   0.00   0.00    -0.01  -0.01  -0.01
   2   6     0.04   0.05   0.02    -0.00  -0.00  -0.01     0.07   0.12   0.10
   3   6    -0.12  -0.12   0.01    -0.04  -0.05  -0.02     0.01   0.00  -0.02
   4   6    -0.00   0.07  -0.00     0.12   0.00   0.25    -0.00  -0.10  -0.00
   5   6     0.12  -0.12  -0.01    -0.04   0.05  -0.02    -0.02   0.01   0.02
   6   6    -0.04   0.05  -0.02    -0.00   0.01  -0.01    -0.07   0.12  -0.10
   7   6     0.00   0.00   0.00     0.00  -0.00   0.00     0.01  -0.01   0.01
   8   1     0.00  -0.00  -0.00    -0.00  -0.00   0.00     0.03   0.03  -0.02
   9   1     0.00   0.01   0.01    -0.00  -0.00  -0.00     0.01   0.03   0.05
  10   1     0.00  -0.00   0.00     0.00  -0.00   0.00     0.00  -0.01   0.01
  11   1    -0.04  -0.09  -0.13     0.01   0.03   0.03    -0.15  -0.31  -0.43
  12   1    -0.10  -0.11   0.06    -0.01  -0.02   0.01    -0.11  -0.11   0.07
  13   1     0.06   0.11   0.17     0.06   0.11   0.15     0.03   0.05   0.06
  14   1     0.37   0.35  -0.21     0.09   0.09  -0.06    -0.07  -0.07   0.04
  15   1    -0.09  -0.13  -0.18    -0.22  -0.39  -0.45     0.12   0.18   0.25
  16   1     0.09  -0.14   0.19    -0.22   0.38  -0.45    -0.12   0.18  -0.25
  17   1    -0.06   0.12  -0.18     0.06  -0.11   0.14    -0.03   0.05  -0.06
  18   1    -0.37   0.35   0.21     0.08  -0.08  -0.05     0.07  -0.07  -0.04
  19   1     0.10  -0.11  -0.06    -0.01   0.01   0.01     0.11  -0.11  -0.07
  20   1     0.04  -0.09   0.13     0.01  -0.03   0.04     0.15  -0.31   0.43
  21   1    -0.00   0.01  -0.01    -0.00   0.00  -0.00    -0.01   0.03  -0.05
  22   1    -0.00  -0.00   0.00    -0.00   0.00   0.00    -0.03   0.03   0.02
  23   1    -0.00  -0.00  -0.00     0.00   0.00   0.00    -0.00  -0.01  -0.01
                     52                     53                     54
                        a                      a                      a 
 Frequencies --  2970.2882              2995.7702              2988.0135
 Red. masses --    99.0000                99.0000                99.0000
 Frc consts  --    99.0000                99.0000                99.0000
 IR Inten    --    99.0000                99.0000                99.0000
 Raman Activ --     0.0000                 0.0000                 0.0000
 Depolar     --     0.0000                 0.0000                 0.0000
 Atom AN      X      Y      Z        X      Y      Z        X      Y      Z
   1   6    -0.01  -0.01  -0.01     0.00  -0.02   0.03    -0.00   0.01  -0.02
   2   6     0.07   0.12   0.10     0.04   0.03  -0.07    -0.04  -0.03   0.08
   3   6     0.05   0.05  -0.04    -0.01  -0.04  -0.11     0.00   0.04   0.12
   4   6     0.02  -0.00   0.03    -0.02   0.00  -0.06    -0.00   0.01   0.00
   5   6     0.05  -0.05  -0.04    -0.01   0.04  -0.12    -0.00   0.04  -0.12
   6   6     0.07  -0.12   0.10     0.04  -0.03  -0.07     0.04  -0.03  -0.08
   7   6    -0.01   0.01  -0.01     0.00   0.01   0.03     0.00   0.01   0.02
   8   1     0.03   0.03  -0.02     0.05   0.05  -0.02    -0.04  -0.04   0.02
   9   1     0.01   0.04   0.05    -0.02  -0.04  -0.05     0.01   0.03   0.04
  10   1     0.00  -0.01   0.01    -0.03   0.04  -0.05     0.02  -0.03   0.03
  11   1    -0.16  -0.33  -0.45     0.07   0.13   0.16    -0.08  -0.15  -0.18
  12   1    -0.09  -0.09   0.07    -0.23  -0.25   0.10     0.23   0.26  -0.10
  13   1     0.03   0.04   0.04     0.17   0.28   0.35    -0.17  -0.28  -0.35
  14   1    -0.21  -0.20   0.11    -0.13  -0.13   0.05     0.15   0.15  -0.07
  15   1    -0.03  -0.05  -0.06     0.05   0.08   0.09    -0.01  -0.01  -0.01
  16   1    -0.03   0.05  -0.06     0.05  -0.08   0.09     0.01  -0.01   0.01
  17   1     0.03  -0.04   0.04     0.17  -0.29   0.36     0.17  -0.28   0.35
  18   1    -0.21   0.20   0.11    -0.13   0.13   0.05    -0.15   0.15   0.06
  19   1    -0.09   0.09   0.06    -0.23   0.25   0.10    -0.22   0.25   0.10
  20   1    -0.16   0.32  -0.45     0.07  -0.13   0.16     0.07  -0.14   0.17
  21   1     0.01  -0.04   0.05    -0.02   0.04  -0.05    -0.01   0.03  -0.03
  22   1     0.03  -0.03  -0.02     0.05  -0.05  -0.02     0.04  -0.04  -0.02
  23   1     0.00   0.01   0.01    -0.03  -0.04  -0.05    -0.02  -0.03  -0.03
                     55                     56                     57
                        a                      a                      a 
 Frequencies --  3028.3121              3027.5943              2992.6783
 Red. masses --    99.0000                99.0000                99.0000
 Frc consts  --    99.0000                99.0000                99.0000
 IR Inten    --    99.0000                99.0000                99.0000
 Raman Activ --     0.0000                 0.0000                 0.0000
 Depolar     --     0.0000                 0.0000                 0.0000
 Atom AN      X      Y      Z        X      Y      Z        X      Y      Z
   1   6    -0.13  -0.16  -0.08     0.11   0.15   0.05    -0.01  -0.03   0.00
   2   6    -0.02  -0.03  -0.01     0.02   0.03   0.01     0.08   0.09  -0.05
   3   6    -0.01  -0.01  -0.01     0.00   0.01   0.00     0.04   0.07   0.08
   4   6    -0.00  -0.00  -0.00     0.00  -0.00   0.00     0.00   0.03   0.00
   5   6     0.01  -0.01   0.01     0.01  -0.01   0.00    -0.04   0.07  -0.08
   6   6     0.02  -0.03   0.01     0.02  -0.03   0.01    -0.08   0.09   0.05
   7   6     0.11  -0.13   0.07     0.13  -0.17   0.06     0.01  -0.03  -0.00
   8   1     0.30   0.31  -0.17    -0.28  -0.30   0.15     0.06   0.06  -0.03
   9   1     0.14   0.30   0.43    -0.11  -0.23  -0.34     0.01   0.02   0.04
  10   1     0.01  -0.06   0.03     0.02   0.02   0.01    -0.01   0.01  -0.02
  11   1     0.02   0.04   0.06    -0.01  -0.03  -0.04     0.03   0.05   0.04
  12   1     0.06   0.07  -0.03    -0.05  -0.05   0.02    -0.33  -0.36   0.16
  13   1     0.02   0.03   0.04    -0.01  -0.01  -0.01    -0.15  -0.24  -0.31
  14   1     0.01   0.01  -0.01    -0.01  -0.01   0.01     0.00   0.01   0.01
  15   1     0.00   0.01   0.01    -0.00  -0.00  -0.01    -0.03  -0.04  -0.06
  16   1    -0.00   0.01  -0.01    -0.00   0.01  -0.01     0.03  -0.04   0.06
  17   1    -0.02   0.02  -0.03    -0.01   0.01  -0.02     0.14  -0.24   0.31
  18   1    -0.01   0.01   0.01    -0.01   0.01   0.01    -0.00   0.01  -0.01
  19   1    -0.05   0.06   0.03    -0.06   0.06   0.03     0.33  -0.37  -0.16
  20   1    -0.02   0.03  -0.05    -0.02   0.03  -0.05    -0.03   0.05  -0.05
  21   1    -0.12   0.26  -0.37    -0.13   0.28  -0.40    -0.01   0.02  -0.04
  22   1    -0.25   0.26   0.14    -0.33   0.35   0.18    -0.06   0.06   0.03
  23   1    -0.01  -0.05  -0.03     0.02  -0.03   0.01     0.02   0.01   0.02
                     58                     59                     60
                        a                      a                      a 
 Frequencies --  2986.3035              2975.5903              3030.4063
 Red. masses --    99.0000                99.0000                99.0000
 Frc consts  --    99.0000                99.0000                99.0000
 IR Inten    --    99.0000                99.0000                99.0000
 Raman Activ --     0.0000                 0.0000                 0.0000
 Depolar     --     0.0000                 0.0000                 0.0000
 Atom AN      X      Y      Z        X      Y      Z        X      Y      Z
   1   6     0.01   0.02  -0.00    -0.01  -0.01  -0.00     0.00  -0.10   0.18
   2   6    -0.08  -0.09   0.06     0.01   0.03   0.06    -0.01  -0.01   0.02
   3   6    -0.03  -0.05  -0.08     0.05   0.06  -0.03    -0.00  -0.00   0.01
   4   6    -0.02  -0.00  -0.04    -0.00   0.17   0.00    -0.00  -0.00  -0.00
   5   6    -0.03   0.05  -0.08    -0.05   0.06   0.03     0.00  -0.00  -0.01
   6   6    -0.08   0.09   0.06    -0.01   0.03  -0.05     0.01  -0.01  -0.02
   7   6     0.01  -0.02  -0.00     0.01  -0.01   0.00    -0.00  -0.09  -0.18
   8   1    -0.04  -0.04   0.02     0.02   0.02  -0.01     0.28   0.28  -0.11
   9   1    -0.01  -0.02  -0.03     0.01   0.01   0.02    -0.09  -0.20  -0.22
  10   1     0.01  -0.01   0.02     0.00  -0.01   0.00    -0.20   0.25  -0.30
  11   1    -0.04  -0.06  -0.06    -0.07  -0.15  -0.20    -0.01  -0.03  -0.03
  12   1     0.34   0.38  -0.16     0.03   0.03  -0.00     0.05   0.06  -0.02
  13   1     0.14   0.23   0.30     0.02   0.02   0.02    -0.01  -0.02  -0.02
  14   1    -0.05  -0.05   0.01    -0.22  -0.21   0.12     0.02   0.03  -0.01
  15   1     0.03   0.05   0.06    -0.20  -0.30  -0.41     0.00   0.00   0.00
  16   1     0.03  -0.05   0.06     0.20  -0.30   0.41    -0.00   0.00  -0.00
  17   1     0.14  -0.22   0.29    -0.02   0.02  -0.02     0.01  -0.02   0.02
  18   1    -0.04   0.05   0.01     0.22  -0.20  -0.12    -0.02   0.03   0.01
  19   1     0.34  -0.38  -0.17    -0.03   0.03   0.00    -0.05   0.06   0.02
  20   1    -0.04   0.07  -0.07     0.07  -0.15   0.20     0.02  -0.03   0.03
  21   1    -0.01   0.02  -0.03    -0.01   0.01  -0.02     0.09  -0.20   0.22
  22   1    -0.05   0.04   0.02    -0.02   0.02   0.01    -0.28   0.28   0.11
  23   1     0.01   0.01   0.02    -0.00  -0.01  -0.00     0.19   0.24   0.29
                     61                     62                     63
                        a                      a                      a 
 Frequencies --  3030.9684              3036.1196              3036.6986
 Red. masses --    99.0000                99.0000                99.0000
 Frc consts  --    99.0000                99.0000                99.0000
 IR Inten    --    99.0000                99.0000                99.0000
 Raman Activ --     0.0000                 0.0000                 0.0000
 Depolar     --     0.0000                 0.0000                 0.0000
 Atom AN      X      Y      Z        X      Y      Z        X      Y      Z
   1   6     0.02  -0.08   0.18     0.09  -0.07   0.00     0.09  -0.07   0.00
   2   6    -0.01  -0.01   0.03     0.00  -0.00  -0.00     0.00  -0.00  -0.00
   3   6    -0.00   0.00   0.02     0.00  -0.00  -0.00     0.00   0.00  -0.00
   4   6     0.00   0.00   0.01    -0.00   0.00  -0.00    -0.00   0.00  -0.00
   5   6    -0.00  -0.00   0.02    -0.00   0.00  -0.00    -0.00   0.00   0.00
   6   6    -0.01   0.01   0.03     0.00   0.00  -0.00    -0.00  -0.00   0.00
   7   6     0.02   0.07   0.18     0.09   0.07   0.01    -0.09  -0.07  -0.01
   8   1     0.24   0.24  -0.09    -0.21  -0.24   0.11    -0.19  -0.23   0.10
   9   1    -0.10  -0.23  -0.26     0.10   0.18   0.26     0.10   0.18   0.25
  10   1    -0.20   0.25  -0.29    -0.22   0.30  -0.38    -0.22   0.29  -0.36
  11   1    -0.02  -0.04  -0.05     0.00   0.00   0.00     0.00   0.00   0.00
  12   1     0.05   0.06  -0.02    -0.00  -0.00   0.00    -0.00  -0.00  -0.00
  13   1    -0.02  -0.04  -0.04     0.00   0.01   0.01     0.00   0.01   0.01
  14   1     0.03   0.03  -0.01    -0.00  -0.00   0.00    -0.01  -0.01   0.00
  15   1    -0.01  -0.01  -0.01     0.00   0.00   0.00    -0.00  -0.00  -0.00
  16   1    -0.01   0.01  -0.01     0.00  -0.00   0.00     0.00  -0.00   0.00
  17   1    -0.02   0.04  -0.04     0.00  -0.00   0.01    -0.00   0.01  -0.01
  18   1     0.03  -0.03  -0.01    -0.00   0.00   0.00     0.00  -0.01  -0.00
  19   1     0.05  -0.06  -0.02    -0.00   0.00  -0.00     0.00  -0.00   0.00
  20   1    -0.02   0.04  -0.05     0.00  -0.00   0.00    -0.00   0.00  -0.00
  21   1    -0.10   0.23  -0.27     0.10  -0.17   0.25    -0.10   0.18  -0.26
  22   1     0.24  -0.25  -0.09    -0.19   0.22   0.10     0.20  -0.23  -0.11
  23   1    -0.19  -0.24  -0.29    -0.22  -0.29  -0.37     0.23   0.31   0.39
