      -----------------------------------------------------------      
     |                   =====================                   |     
     |                           x T B                           |     
     |                   =====================                   |     
     |                         S. Grimme                         |     
     |          Mulliken Center for Theoretical Chemistry        |     
     |                    University of Bonn                     |     
      -----------------------------------------------------------      

   * xtb version 6.6.1 (8d0f1dd) compiled by 'stahn@M-Bot' on 2023-08-01

   xtb is free software: you can redistribute it and/or modify it under
   the terms of the GNU Lesser General Public License as published by
   the Free Software Foundation, either version 3 of the License, or
   (at your option) any later version.
   
   xtb is distributed in the hope that it will be useful,
   but WITHOUT ANY WARRANTY; without even the implied warranty of
   MERCHANTABILITY or FITNESS FOR A PARTICULAR PURPOSE.  See the
   GNU Lesser General Public License for more details.
   
   Cite this work as:
   * C. Bannwarth, E. Caldeweyher, S. Ehlert, A. Hansen, P. Pracht,
     J. Seibert, S. Spicher, S. Grimme, WIREs Comput. Mol. Sci., 2020, 11,
     e01493. DOI: 10.1002/wcms.1493
   
   for GFN2-xTB:
   * C. Bannwarth, S. Ehlert and S. Grimme., J. Chem. Theory Comput., 2019,
     15, 1652-1671. DOI: 10.1021/acs.jctc.8b01176
   for GFN1-xTB:
   * S. Grimme, C. Bannwarth, P. Shushkov, J. Chem. Theory Comput., 2017,
     13, 1989-2009. DOI: 10.1021/acs.jctc.7b00118
   for GFN0-xTB:
   * P. Pracht, E. Caldeweyher, S. Ehlert, S. Grimme, ChemRxiv, 2019, preprint.
     DOI: 10.26434/chemrxiv.8326202.v1
   for GFN-FF:
   * S. Spicher and S. Grimme, Angew. Chem. Int. Ed., 2020, 59, 15665-15673.
     DOI: 10.1002/anie.202004239
   
   for ALPB and GBSA implicit solvation:
   * S. Ehlert, M. Stahn, S. Spicher, S. Grimme, J. Chem. Theory Comput.,
     2021, 17, 4250-4261. DOI: 10.1021/acs.jctc.1c00471
   
   for DFT-D4:
   * E. Caldeweyher, C. Bannwarth and S. Grimme, J. Chem. Phys., 2017,
     147, 034112. DOI: 10.1063/1.4993215
   * E. Caldeweyher, S. Ehlert, A. Hansen, H. Neugebauer, S. Spicher,
     C. Bannwarth and S. Grimme, J. Chem. Phys., 2019, 150, 154122.
     DOI: 10.1063/1.5090222
   * E. Caldeweyher, J.-M. Mewes, S. Ehlert and S. Grimme, Phys. Chem. Chem. Phys.
     2020, 22, 8499-8512. DOI: 10.1039/D0CP00502A
   
   for sTDA-xTB:
   * S. Grimme and C. Bannwarth, J. Chem. Phys., 2016, 145, 054103.
     DOI: 10.1063/1.4959605
   
   in the mass-spec context:
   * V. Asgeirsson, C. Bauer and S. Grimme, Chem. Sci., 2017, 8, 4879.
     DOI: 10.1039/c7sc00601b
   * J. Koopman and S. Grimme, ACS Omega 2019, 4, 12, 15120-15133.
     DOI: 10.1021/acsomega.9b02011
   
   for metadynamics refer to:
   * S. Grimme, J. Chem. Theory Comput., 2019, 155, 2847-2862
     DOI: 10.1021/acs.jctc.9b00143
   
   for SPH calculations refer to:
   * S. Spicher and S. Grimme, J. Chem. Theory Comput., 2021, 17, 1701-1714
     DOI: 10.1021/acs.jctc.0c01306
   
   with help from (in alphabetical order)
   P. Atkinson, C. Bannwarth, F. Bohle, G. Brandenburg, E. Caldeweyher
   M. Checinski, S. Dohm, S. Ehlert, S. Ehrlich, I. Gerasimov, C. Hölzer
   A. Katbashev, J. Koopman, C. Lavigne, S. Lehtola, F. März, M. Müller,
   F. Musil, H. Neugebauer, J. Pisarek, C. Plett, P. Pracht, F. Pultar,
   J. Seibert, P. Shushkov, S. Spicher, M. Stahn, M. Steiner, T. Strunk,
   J. Stückrath, T. Rose, and J. Unsleber
   
 * started run on 2024/04/23 at 12:10:20.070     

           -------------------------------------------------
          |                Calculation Setup                |
           -------------------------------------------------

          program call               : xtb folded.xyz --gfn 2 --ohess -P 4
          coordinate file            : folded.xyz
          omp threads                :                     4

   ID    Z sym.   atoms
    1    6 C      1-7
    2    1 H      8-23

           -------------------------------------------------
          |                 G F N 2 - x T B                 |
           -------------------------------------------------

        Reference                      10.1021/acs.jctc.8b01176
      * Hamiltonian:
        H0-scaling (s, p, d)           1.850000    2.230000    2.230000
        zeta-weighting                 0.500000
      * Dispersion:
        s8                             2.700000
        a1                             0.520000
        a2                             5.000000
        s9                             5.000000
      * Repulsion:
        kExp                           1.500000    1.000000
        rExp                           1.000000
      * Coulomb:
        alpha                          2.000000
        third order                    shell-resolved
        anisotropic                    true
        a3                             3.000000
        a5                             4.000000
        cn-shift                       1.200000
        cn-exp                         4.000000
        max-rad                        5.000000


          ...................................................
          :                      SETUP                      :
          :.................................................:
          :  # basis functions                  44          :
          :  # atomic orbitals                  44          :
          :  # shells                           30          :
          :  # electrons                        44          :
          :  max. iterations                   250          :
          :  Hamiltonian                  GFN2-xTB          :
          :  restarted?                      false          :
          :  GBSA solvation                  false          :
          :  PC potential                    false          :
          :  electronic temp.          300.0000000     K    :
          :  accuracy                    1.0000000          :
          :  -> integral cutoff          0.2500000E+02      :
          :  -> integral neglect         0.1000000E-07      :
          :  -> SCF convergence          0.1000000E-05 Eh   :
          :  -> wf. convergence          0.1000000E-03 e    :
          :  Broyden damping             0.4000000          :
          ...................................................

 iter      E             dE          RMSdq      gap      omega  full diag
   1    -23.4316716 -0.234317E+02  0.242E+00   13.38       0.0  T
   2    -23.4945474 -0.628758E-01  0.121E+00   13.10       1.0  T
   3    -23.4952535 -0.706085E-03  0.660E-01   13.07       1.0  T
   4    -23.4954392 -0.185637E-03  0.869E-02   13.07       1.0  T
   5    -23.4954510 -0.118182E-04  0.480E-02   13.07       1.0  T
   6    -23.4954516 -0.653507E-06  0.277E-03   13.07       7.5  T
   7    -23.4954517 -0.383927E-07  0.124E-03   13.07      16.9  T
   8    -23.4954517 -0.345059E-08  0.229E-04   13.07      90.9  T
   9    -23.4954517 -0.444231E-10  0.811E-05   13.07     257.2  T

   *** convergence criteria satisfied after 9 iterations ***

         #    Occupation            Energy/Eh            Energy/eV
      -------------------------------------------------------------
         1        2.0000           -0.6211071             -16.9012
       ...           ...                  ...                  ...
        16        2.0000           -0.4507598             -12.2658
        17        2.0000           -0.4434438             -12.0667
        18        2.0000           -0.4302308             -11.7072
        19        2.0000           -0.4281061             -11.6494
        20        2.0000           -0.4201034             -11.4316
        21        2.0000           -0.4153744             -11.3029
        22        2.0000           -0.4095677             -11.1449 (HOMO)
        23                          0.0709188               1.9298 (LUMO)
        24                          0.0751492               2.0449
        25                          0.0997109               2.7133
        26                          0.1175528               3.1988
        27                          0.1190288               3.2389
       ...                                ...                  ...
        44                          0.3033822               8.2555
      -------------------------------------------------------------
                  HL-Gap            0.4804865 Eh           13.0747 eV
             Fermi-level           -0.1693245 Eh           -4.6076 eV

 SCC (total)                   0 d,  0 h,  0 min,  0.031 sec
 SCC setup                      ...        0 min,  0.001 sec (  4.151%)
 Dispersion                     ...        0 min,  0.001 sec (  1.626%)
 classical contributions        ...        0 min,  0.000 sec (  0.217%)
 integral evaluation            ...        0 min,  0.002 sec (  7.121%)
 iterations                     ...        0 min,  0.020 sec ( 64.231%)
 molecular gradient             ...        0 min,  0.006 sec ( 18.760%)
 printout                       ...        0 min,  0.001 sec (  3.497%)

         :::::::::::::::::::::::::::::::::::::::::::::::::::::
         ::                     SUMMARY                     ::
         :::::::::::::::::::::::::::::::::::::::::::::::::::::
         :: total energy             -23.154891771818 Eh    ::
         :: gradient norm              0.024725869618 Eh/a0 ::
         :: HOMO-LUMO gap             13.074703005362 eV    ::
         ::.................................................::
         :: SCC energy               -23.495451665993 Eh    ::
         :: -> isotropic ES            0.004103792612 Eh    ::
         :: -> anisotropic ES          0.008121762700 Eh    ::
         :: -> anisotropic XC          0.014313329108 Eh    ::
         :: -> dispersion             -0.013487993176 Eh    ::
         :: repulsion energy           0.340500043414 Eh    ::
         :: add. restraining           0.000000000000 Eh    ::
         :: total charge              -0.000000000000 e     ::
         :::::::::::::::::::::::::::::::::::::::::::::::::::::

      ----------------------------------------------------------- 
     |                   =====================                   |
     |                        A N C O P T                        |
     |                   =====================                   |
     |               Approximate Normal Coordinate               |
     |                Rational Function Optimizer                |
      ----------------------------------------------------------- 

          ...................................................
          :                      SETUP                      :
          :.................................................:
          :   optimization level            normal          :
          :   max. optcycles                   200          :
          :   ANC micro-cycles                  20          :
          :   degrees of freedom                63          :
          :.................................................:
          :   RF solver                   davidson          :
          :   write xtbopt.log                true          :
          :   linear?                        false          :
          :   energy convergence         0.5000000E-05 Eh   :
          :   grad. convergence          0.1000000E-02 Eh/α :
          :   maxmium RF displ.          2.0000000          :
          :   Hlow (freq-cutoff)         0.2000000E-01      :
          :   Hmax (freq-cutoff)         5.0000000          :
          :   S6 in model hess.         70.0000000          :
          ...................................................

generating ANC from model Hessian ...
Using Lindh-Hessian (1995)
 Shifting diagonal of input Hessian by   1.810132935069480E-002
 Lowest  eigenvalues of input Hessian
    0.000000    0.000000    0.000000    0.000000    0.000000    0.000000
    0.020000    0.022327    0.022761    0.026219    0.026918    0.030834
    0.031251    0.032706    0.034313    0.038687    0.048028    0.061951
 Highest eigenvalues
    1.182127    1.214352    1.220456    1.231343    1.291492    1.312591
 

........................................................................
.............................. CYCLE    1 ..............................
........................................................................

 iter      E             dE          RMSdq      gap      omega  full diag
   1    -23.4954517 -0.234955E+02  0.145E-05   13.07       0.0  T
   2    -23.4954517 -0.689226E-12  0.769E-06   13.07    2711.4  T
   3    -23.4954517 -0.675016E-13  0.345E-06   13.07    6037.0  T
     SCC iter.                  ...        0 min,  0.002 sec
     gradient                   ...        0 min,  0.003 sec
 * total energy  :   -23.1548918 Eh     change       -0.1134026E-10 Eh
   gradient norm :     0.0247256 Eh/α   predicted     0.0000000E+00 (-100.00%)
   displ. norm   :     0.1456269 α      lambda       -0.2032162E-02
   maximum displ.:     0.0848602 α      in ANC's #27, #15, #17, ...

........................................................................
.............................. CYCLE    2 ..............................
........................................................................

 iter      E             dE          RMSdq      gap      omega  full diag
   1    -23.5026665 -0.235027E+02  0.139E-01   13.28       0.0  T
   2    -23.5026694 -0.290365E-05  0.800E-02   13.28       1.0  T
   3    -23.5026699 -0.448484E-06  0.364E-03   13.28       5.7  T
   4    -23.5026699 -0.275743E-07  0.133E-03   13.28      15.7  T
   5    -23.5026699 -0.156560E-08  0.664E-04   13.28      31.4  T
   6    -23.5026699 -0.460226E-09  0.612E-05   13.28     340.7  T
     SCC iter.                  ...        0 min,  0.003 sec
     gradient                   ...        0 min,  0.002 sec
 * total energy  :   -23.1562051 Eh     change       -0.1313319E-02 Eh
   gradient norm :     0.0109103 Eh/α   predicted    -0.1037631E-02 ( -20.99%)
   displ. norm   :     0.0669815 α      lambda       -0.3235728E-03
   maximum displ.:     0.0362640 α      in ANC's #27, #15, #5, ...

........................................................................
.............................. CYCLE    3 ..............................
........................................................................

 iter      E             dE          RMSdq      gap      omega  full diag
   1    -23.5069871 -0.235070E+02  0.596E-02   13.34       0.0  T
   2    -23.5069888 -0.169143E-05  0.338E-02   13.34       1.0  T
   3    -23.5069889 -0.743171E-07  0.346E-03   13.34       6.0  T
   4    -23.5069889 -0.131365E-07  0.625E-04   13.34      33.4  T
   5    -23.5069889 -0.845976E-09  0.347E-04   13.34      60.0  T
     SCC iter.                  ...        0 min,  0.004 sec
     gradient                   ...        0 min,  0.002 sec
 * total energy  :   -23.1563821 Eh     change       -0.1769859E-03 Eh
   gradient norm :     0.0022998 Eh/α   predicted    -0.1625444E-03 (  -8.16%)
   displ. norm   :     0.0248051 α      lambda       -0.1648648E-04
   maximum displ.:     0.0152602 α      in ANC's #5, #1, #3, ...

........................................................................
.............................. CYCLE    4 ..............................
........................................................................

 iter      E             dE          RMSdq      gap      omega  full diag
   1    -23.5074973 -0.235075E+02  0.649E-03   13.34       0.0  T
   2    -23.5074974 -0.668713E-07  0.372E-03   13.34       5.6  T
   3    -23.5074974 -0.102937E-08  0.874E-04   13.34      23.9  T
   4    -23.5074974 -0.463746E-09  0.121E-04   13.34     172.0  T
     SCC iter.                  ...        0 min,  0.002 sec
     gradient                   ...        0 min,  0.002 sec
 * total energy  :   -23.1563965 Eh     change       -0.1444874E-04 Eh
   gradient norm :     0.0006107 Eh/α   predicted    -0.9312588E-05 ( -35.55%)
   displ. norm   :     0.0846765 α      lambda       -0.2463265E-04
   maximum displ.:     0.0532905 α      in ANC's #1, #5, #3, ...

........................................................................
.............................. CYCLE    5 ..............................
........................................................................

 iter      E             dE          RMSdq      gap      omega  full diag
   1    -23.5078066 -0.235078E+02  0.156E-02   13.33       0.0  T
   2    -23.5078067 -0.127089E-06  0.925E-03   13.33       2.3  T
   3    -23.5078067 -0.816346E-08  0.984E-04   13.33      21.2  T
   4    -23.5078067 -0.256351E-08  0.304E-04   13.33      68.7  T
     SCC iter.                  ...        0 min,  0.002 sec
     gradient                   ...        0 min,  0.002 sec
 * total energy  :   -23.1564155 Eh     change       -0.1900013E-04 Eh
   gradient norm :     0.0029383 Eh/α   predicted    -0.1235576E-04 ( -34.97%)
   displ. norm   :     0.0252887 α      lambda       -0.9019968E-05
   maximum displ.:     0.0183453 α      in ANC's #1, #3, #5, ...

........................................................................
.............................. CYCLE    6 ..............................
........................................................................

 iter      E             dE          RMSdq      gap      omega  full diag
   1    -23.5075518 -0.235076E+02  0.482E-03   13.33       0.0  T
   2    -23.5075518 -0.181778E-07  0.282E-03   13.33       7.4  T
   3    -23.5075518 -0.436039E-09  0.385E-04   13.33      54.1  T
   4    -23.5075518 -0.273605E-09  0.797E-05   13.33     261.5  T
     SCC iter.                  ...        0 min,  0.002 sec
     gradient                   ...        0 min,  0.002 sec
 * total energy  :   -23.1564235 Eh     change       -0.7943270E-05 Eh
   gradient norm :     0.0020763 Eh/α   predicted    -0.4531082E-05 ( -42.96%)
   displ. norm   :     0.0937067 α      lambda       -0.2562521E-04
   maximum displ.:     0.0710044 α      in ANC's #1, #3, #5, ...

........................................................................
.............................. CYCLE    7 ..............................
........................................................................

 iter      E             dE          RMSdq      gap      omega  full diag
   1    -23.5069007 -0.235069E+02  0.175E-02   13.33       0.0  T
   2    -23.5069008 -0.158391E-06  0.103E-02   13.33       2.0  T
   3    -23.5069008 -0.427147E-08  0.102E-03   13.33      20.5  T
   4    -23.5069008 -0.315893E-08  0.268E-04   13.33      77.7  T
   5    -23.5069008 -0.251518E-09  0.129E-04   13.33     161.7  T
     SCC iter.                  ...        0 min,  0.002 sec
     gradient                   ...        0 min,  0.001 sec
 * total energy  :   -23.1564384 Eh     change       -0.1496489E-04 Eh
   gradient norm :     0.0007692 Eh/α   predicted    -0.1292635E-04 ( -13.62%)
   displ. norm   :     0.0560018 α      lambda       -0.5371076E-05
   maximum displ.:     0.0444149 α      in ANC's #1, #3, #7, ...

........................................................................
.............................. CYCLE    8 ..............................
........................................................................

 iter      E             dE          RMSdq      gap      omega  full diag
   1    -23.5068398 -0.235068E+02  0.110E-02   13.34       0.0  T
   2    -23.5068398 -0.111714E-07  0.655E-03   13.34       3.2  T
   3    -23.5068398 -0.138680E-08  0.276E-04   13.34      75.6  T
   4    -23.5068398 -0.393520E-09  0.131E-04   13.34     159.4  T
     SCC iter.                  ...        0 min,  0.001 sec
     gradient                   ...        0 min,  0.001 sec
 * total energy  :   -23.1564452 Eh     change       -0.6798061E-05 Eh
   gradient norm :     0.0014004 Eh/α   predicted    -0.2697585E-05 ( -60.32%)
   displ. norm   :     0.1111543 α      lambda       -0.1532069E-04
   maximum displ.:     0.0819282 α      in ANC's #1, #3, #5, ...

........................................................................
.............................. CYCLE    9 ..............................
........................................................................

 iter      E             dE          RMSdq      gap      omega  full diag
   1    -23.5070541 -0.235071E+02  0.241E-02   13.34       0.0  T
   2    -23.5070541 -0.226381E-07  0.142E-02   13.34       1.5  T
   3    -23.5070541 -0.719209E-08  0.505E-04   13.34      41.3  T
   4    -23.5070541 -0.654154E-09  0.258E-04   13.34      80.8  T
     SCC iter.                  ...        0 min,  0.001 sec
     gradient                   ...        0 min,  0.001 sec
 * total energy  :   -23.1564643 Eh     change       -0.1906152E-04 Eh
   gradient norm :     0.0015140 Eh/α   predicted    -0.7709190E-05 ( -59.56%)
   displ. norm   :     0.1896084 α      lambda       -0.1971203E-04
   maximum displ.:     0.1399886 α      in ANC's #1, #3, #5, ...

........................................................................
.............................. CYCLE   10 ..............................
........................................................................

 iter      E             dE          RMSdq      gap      omega  full diag
   1    -23.5068522 -0.235069E+02  0.409E-02   13.34       0.0  T
   2    -23.5068522 -0.526580E-07  0.242E-02   13.34       1.0  T
   3    -23.5068523 -0.220043E-07  0.791E-04   13.34      26.4  T
   4    -23.5068523 -0.316962E-09  0.253E-04   13.34      82.5  T
     SCC iter.                  ...        0 min,  0.004 sec
     gradient                   ...        0 min,  0.001 sec
 * total energy  :   -23.1564830 Eh     change       -0.1872396E-04 Eh
   gradient norm :     0.0007637 Eh/α   predicted    -0.1001472E-04 ( -46.51%)
   displ. norm   :     0.0706511 α      lambda       -0.3349343E-05
   maximum displ.:     0.0531065 α      in ANC's #1, #3, #5, ...

........................................................................
.............................. CYCLE   11 ..............................
........................................................................

 iter      E             dE          RMSdq      gap      omega  full diag
   1    -23.5072616 -0.235073E+02  0.156E-02   13.34       0.0  T
   2    -23.5072616 -0.231947E-07  0.919E-03   13.34       2.3  T
   3    -23.5072616 -0.309984E-08  0.382E-04   13.34      54.6  T
   4    -23.5072616 -0.435016E-09  0.173E-04   13.34     120.9  T
     SCC iter.                  ...        0 min,  0.001 sec
     gradient                   ...        0 min,  0.001 sec
 * total energy  :   -23.1564859 Eh     change       -0.2893626E-05 Eh
   gradient norm :     0.0001819 Eh/α   predicted    -0.1703249E-05 ( -41.14%)
   displ. norm   :     0.0241289 α      lambda       -0.4820305E-06
   maximum displ.:     0.0187097 α      in ANC's #1, #3, #8, ...

   *** GEOMETRY OPTIMIZATION CONVERGED AFTER 11 ITERATIONS ***

------------------------------------------------------------------------
 total energy gain   :        -0.0015941 Eh       -1.0003 kcal/mol
 total RMSD          :         0.1417708 a0        0.0750 Å
 total power (kW/mol):        -0.3804919 (step)  -50.9906 (real)
------------------------------------------------------------------------

 ANCopt (total)                0 d,  0 h,  0 min,  0.082 sec
 optimizer setup                ...        0 min,  0.002 sec (  2.832%)
 model hessian                  ...        0 min,  0.024 sec ( 28.712%)
 ANC generation                 ...        0 min,  0.001 sec (  1.303%)
 coordinate transformation      ...        0 min,  0.000 sec (  0.169%)
 single point calculation       ...        0 min,  0.052 sec ( 62.723%)
 optimization log               ...        0 min,  0.001 sec (  1.280%)
 hessian update                 ...        0 min,  0.000 sec (  0.277%)
 rational function              ...        0 min,  0.001 sec (  0.984%)

================
 final structure:
================
23
 xtb: 6.6.1 (8d0f1dd)
C           -3.08187248771695        0.97019489155423        0.12820471774660
C           -1.85160374359966        0.28676921336550       -0.45674773710106
C           -1.15495351283488       -0.59566636249258        0.57657744864444
C            0.00021936879954       -1.41667543002101        0.00094294962023
C            1.15444932457567       -0.59526423322320       -0.57597429675049
C            1.85179288779027        0.28760839464181        0.45648242843820
C            3.08037491687913        0.97253542661957       -0.13025337605651
H           -3.80112407309678        0.23153447987085        0.47604665850625
H           -2.80367699549163        1.59829756795971        0.97207409144204
H           -3.56605530039563        1.59478547980164       -0.61913601519338
H           -2.14851513517049       -0.32558571156567       -1.31158613797713
H           -1.16038083345924        1.05021911765830       -0.81711812570805
H           -0.79397295160675        0.02488706696347        1.39858384199076
H           -1.88933523512092       -1.29002418162143        0.99369624805394
H           -0.39107321446162       -2.06421992243726       -0.78817928829831
H            0.39223485692858       -2.06256870240724        0.79106235225676
H            0.79237978986501        0.02496174931686       -1.39773534503267
H            1.88875285835817       -1.28934355018277       -0.99369380809949
H            1.16036955091185        1.05016526736677        0.81835062036195
H            2.15078315258455       -0.32471999752783        1.31062134725421
H            2.79972189169903        1.60294547411749       -0.97159904762145
H            3.79845457247769        0.23472360977278       -0.48232742909514
H            3.56692531208502        1.59501435246999        0.61729190261829
           -------------------------------------------------
          |                Final Singlepoint                |
           -------------------------------------------------

          ...................................................
          :                      SETUP                      :
          :.................................................:
          :  # basis functions                  44          :
          :  # atomic orbitals                  44          :
          :  # shells                           30          :
          :  # electrons                        44          :
          :  max. iterations                   250          :
          :  Hamiltonian                  GFN2-xTB          :
          :  restarted?                      false          :
          :  GBSA solvation                  false          :
          :  PC potential                    false          :
          :  electronic temp.          300.0000000     K    :
          :  accuracy                    1.0000000          :
          :  -> integral cutoff          0.2500000E+02      :
          :  -> integral neglect         0.1000000E-07      :
          :  -> SCF convergence          0.1000000E-05 Eh   :
          :  -> wf. convergence          0.1000000E-03 e    :
          :  Broyden damping             0.4000000          :
          ...................................................

 iter      E             dE          RMSdq      gap      omega  full diag
   1    -23.5072616 -0.235073E+02  0.676E-05   13.34       0.0  T
   2    -23.5072616 -0.598277E-11  0.383E-05   13.34     543.7  T
   3    -23.5072616  0.319744E-13  0.116E-05   13.34    1791.2  T

   *** convergence criteria satisfied after 3 iterations ***

         #    Occupation            Energy/Eh            Energy/eV
      -------------------------------------------------------------
         1        2.0000           -0.6218801             -16.9222
       ...           ...                  ...                  ...
        16        2.0000           -0.4513757             -12.2826
        17        2.0000           -0.4425591             -12.0426
        18        2.0000           -0.4292508             -11.6805
        19        2.0000           -0.4277916             -11.6408
        20        2.0000           -0.4195700             -11.4171
        21        2.0000           -0.4155749             -11.3084
        22        2.0000           -0.4115969             -11.2001 (HOMO)
        23                          0.0784658               2.1352 (LUMO)
        24                          0.0826067               2.2478
        25                          0.1090030               2.9661
        26                          0.1226101               3.3364
        27                          0.1273371               3.4650
       ...                                ...                  ...
        44                          0.3155876               8.5876
      -------------------------------------------------------------
                  HL-Gap            0.4900627 Eh           13.3353 eV
             Fermi-level           -0.1665655 Eh           -4.5325 eV

 SCC (total)                   0 d,  0 h,  0 min,  0.005 sec
 SCC setup                      ...        0 min,  0.001 sec ( 16.441%)
 Dispersion                     ...        0 min,  0.000 sec (  1.011%)
 classical contributions        ...        0 min,  0.000 sec (  0.298%)
 integral evaluation            ...        0 min,  0.000 sec (  9.507%)
 iterations                     ...        0 min,  0.001 sec ( 27.733%)
 molecular gradient             ...        0 min,  0.001 sec ( 27.455%)
 printout                       ...        0 min,  0.001 sec ( 16.918%)

         :::::::::::::::::::::::::::::::::::::::::::::::::::::
         ::                     SUMMARY                     ::
         :::::::::::::::::::::::::::::::::::::::::::::::::::::
         :: total energy             -23.156485910766 Eh    ::
         :: gradient norm              0.000181879332 Eh/a0 ::
         :: HOMO-LUMO gap             13.335284736280 eV    ::
         ::.................................................::
         :: SCC energy               -23.507261636149 Eh    ::
         :: -> isotropic ES            0.004374606412 Eh    ::
         :: -> anisotropic ES          0.007727561429 Eh    ::
         :: -> anisotropic XC          0.014448432412 Eh    ::
         :: -> dispersion             -0.013476271414 Eh    ::
         :: repulsion energy           0.350723006497 Eh    ::
         :: add. restraining           0.000000000000 Eh    ::
         :: total charge              -0.000000000000 e     ::
         :::::::::::::::::::::::::::::::::::::::::::::::::::::

           ------------------------------------------------- 
          |                Numerical Hessian                |
           ------------------------------------------------- 
step length          :   0.00500
SCC accuracy         :   0.30000
Hessian scale factor :   1.00000
frozen atoms in %    :   0.00000    0
RMS gradient         :   0.00018
estimated CPU  time      0.07 min
estimated wall time      0.02 min

writing file <hessian>.

 projected vibrational frequencies (cm⁻¹)
eigval :       -0.00    -0.00     0.00     0.00     0.00     0.00
eigval :       46.73    69.10    73.59   184.79   208.77   234.71
eigval :      242.71   293.36   302.71   429.66   504.65   757.44
eigval :      789.49   827.82   881.47   907.95   915.77   962.37
eigval :      996.92  1061.20  1068.50  1087.60  1098.08  1146.58
eigval :     1158.42  1161.83  1225.04  1237.48  1268.48  1282.54
eigval :     1289.31  1301.36  1317.00  1363.40  1372.65  1375.73
eigval :     1416.73  1416.94  1489.90  1492.61  1500.26  1501.31
eigval :     1503.77  1505.75  1506.01  1508.65  1509.09  2955.07
eigval :     2956.32  2958.66  2967.67  2970.29  2975.59  2986.30
eigval :     2988.01  2992.68  2995.77  3027.59  3028.31  3030.41
eigval :     3030.97  3036.12  3036.70
           -------------------------------------------------
          |                Property Printout                |
           -------------------------------------------------

    * Orbital Energies and Occupations

         #    Occupation            Energy/Eh            Energy/eV
      -------------------------------------------------------------
         1        2.0000           -0.6218801             -16.9222
       ...           ...                  ...                  ...
        10        2.0000           -0.4956359             -13.4869
        11        2.0000           -0.4876111             -13.2686
        12        2.0000           -0.4873844             -13.2624
        13        2.0000           -0.4778048             -13.0017
        14        2.0000           -0.4561173             -12.4116
        15        2.0000           -0.4545015             -12.3676
        16        2.0000           -0.4513757             -12.2826
        17        2.0000           -0.4425590             -12.0426
        18        2.0000           -0.4292508             -11.6805
        19        2.0000           -0.4277916             -11.6408
        20        2.0000           -0.4195700             -11.4171
        21        2.0000           -0.4155749             -11.3084
        22        2.0000           -0.4115969             -11.2001 (HOMO)
        23                          0.0784658               2.1352 (LUMO)
        24                          0.0826067               2.2478
        25                          0.1090030               2.9661
        26                          0.1226101               3.3364
        27                          0.1273371               3.4650
        28                          0.1347484               3.6667
        29                          0.1499461               4.0802
        30                          0.1584059               4.3104
        31                          0.1728930               4.7047
        32                          0.1785049               4.8574
        33                          0.1856032               5.0505
       ...                                ...                  ...
        44                          0.3155876               8.5876
      -------------------------------------------------------------
                  HL-Gap            0.4900627 Eh           13.3353 eV
             Fermi-level           -0.1665655 Eh           -4.5325 eV

     #   Z          covCN         q      C6AA      α(0)
     1   6 C        3.752    -0.102    22.502     6.765
     2   6 C        3.800    -0.053    21.517     6.604
     3   6 C        3.802    -0.059    21.628     6.621
     4   6 C        3.801    -0.058    21.616     6.619
     5   6 C        3.802    -0.059    21.628     6.621
     6   6 C        3.800    -0.053    21.517     6.604
     7   6 C        3.752    -0.102    22.502     6.765
     8   1 H        0.925     0.032     2.563     2.503
     9   1 H        0.925     0.032     2.559     2.502
    10   1 H        0.925     0.032     2.564     2.504
    11   1 H        0.924     0.028     2.616     2.529
    12   1 H        0.924     0.032     2.563     2.504
    13   1 H        0.924     0.031     2.568     2.506
    14   1 H        0.924     0.028     2.616     2.529
    15   1 H        0.924     0.028     2.619     2.531
    16   1 H        0.924     0.028     2.619     2.531
    17   1 H        0.924     0.031     2.567     2.506
    18   1 H        0.924     0.028     2.616     2.529
    19   1 H        0.924     0.032     2.563     2.504
    20   1 H        0.924     0.028     2.616     2.529
    21   1 H        0.925     0.032     2.560     2.502
    22   1 H        0.925     0.032     2.562     2.503
    23   1 H        0.925     0.032     2.564     2.504

 Mol. C6AA /au·bohr⁶  :       3403.640823
 Mol. C8AA /au·bohr⁸  :      70212.258980
 Mol. α(0) /au        :         86.816639


Wiberg/Mayer (AO) data.
largest (>0.10) Wiberg bond orders for each atom

 ---------------------------------------------------------------------------
     #   Z sym  total        # sym  WBO       # sym  WBO       # sym  WBO
 ---------------------------------------------------------------------------
     1   6 C    3.997 --     2 C    1.019     9 H    0.988     8 H    0.988
                            10 H    0.988
     2   6 C    3.998 --     1 C    1.019     3 C    1.009    11 H    0.978
                            12 H    0.977
     3   6 C    3.997 --     2 C    1.009     4 C    1.007    14 H    0.977
                            13 H    0.976
     4   6 C    3.998 --     5 C    1.007     3 C    1.007    15 H    0.978
                            16 H    0.978
     5   6 C    3.997 --     6 C    1.009     4 C    1.007    18 H    0.977
                            17 H    0.976
     6   6 C    3.998 --     7 C    1.019     5 C    1.009    20 H    0.978
                            19 H    0.977
     7   6 C    3.997 --     6 C    1.019    21 H    0.988    22 H    0.988
                            23 H    0.988
     8   1 H    0.999 --     1 C    0.988
     9   1 H    0.999 --     1 C    0.988
    10   1 H    0.999 --     1 C    0.988
    11   1 H    0.999 --     2 C    0.978
    12   1 H    0.999 --     2 C    0.977
    13   1 H    0.999 --     3 C    0.976
    14   1 H    0.999 --     3 C    0.977
    15   1 H    0.999 --     4 C    0.978
    16   1 H    0.999 --     4 C    0.978
    17   1 H    0.999 --     5 C    0.976
    18   1 H    0.999 --     5 C    0.977
    19   1 H    0.999 --     6 C    0.977
    20   1 H    0.999 --     6 C    0.978
    21   1 H    0.999 --     7 C    0.988
    22   1 H    0.999 --     7 C    0.988
    23   1 H    0.999 --     7 C    0.988
 ---------------------------------------------------------------------------

Topologies differ in total number of bonds
Writing topology from bond orders to xtbtopo.mol

molecular dipole:
                 x           y           z       tot (Debye)
 q only:       -0.000       0.010      -0.000
   full:       -0.000       0.006      -0.000       0.016
molecular quadrupole (traceless):
                xx          xy          yy          xz          yz          zz
 q only:       -0.061      -0.000      -0.000      -0.105      -0.000       0.061
  q+dip:       -0.894      -0.000       0.403       0.533       0.002       0.492
   full:       -0.432      -0.000       0.200       0.220       0.001       0.232

           -------------------------------------------------
          |                Geometry Summary                 |
           -------------------------------------------------

      molecular mass/u    :      100.2022033
   center of mass at/Å    :       -0.0002363       0.0057607      -0.0001287
  moments of inertia/u·Å² :        0.1104191E+03   0.4623350E+03   0.5159993E+03
rotational constants/cm⁻¹ :        0.1526696E+00   0.3646195E-01   0.3266988E-01

 * 22 selected distances

     #   Z          #   Z                                           value/Å
     1   6 C        2   6 C                                       1.5240740
     2   6 C        3   6 C                                       1.5270152
     3   6 C        4   6 C                                       1.5296522 (max)
     4   6 C        5   6 C                                       1.5296395
     5   6 C        6   6 C                                       1.5269969
     6   6 C        7   6 C                                       1.5240729
     1   6 C        8   1 H                                       1.0880884
     1   6 C        9   1 H                                       1.0881275
     1   6 C       10   1 H                                       1.0876878
     2   6 C       11   1 H                                       1.0926499
     2   6 C       12   1 H                                       1.0911058
     3   6 C       13   1 H                                       1.0913699
     3   6 C       14   1 H                                       1.0933607
     4   6 C       15   1 H                                       1.0932236
     4   6 C       16   1 H                                       1.0932260
     5   6 C       17   1 H                                       1.0913597
     5   6 C       18   1 H                                       1.0933607
     6   6 C       19   1 H                                       1.0911040
     6   6 C       20   1 H                                       1.0926549
     7   6 C       21   1 H                                       1.0881386
     7   6 C       22   1 H                                       1.0880997
     7   6 C       23   1 H                                       1.0876743 (min)

 * 2 distinct bonds (by element types)

   Z      Z             #   av. dist./Å        max./Å        min./Å
   1 H    6 C          16     1.0907020     1.0933607     1.0876743
   6 C    6 C           6     1.5269085     1.5296522     1.5240729

           -------------------------------------------------
          |               Frequency Printout                |
           -------------------------------------------------
 projected vibrational frequencies (cm⁻¹)
eigval :       -0.00    -0.00     0.00     0.00     0.00     0.00
eigval :       46.73    69.10    73.59   184.79   208.77   234.71
eigval :      242.71   293.36   302.71   429.66   504.65   757.44
eigval :      789.49   827.82   881.47   907.95   915.77   962.37
eigval :      996.92  1061.20  1068.50  1087.60  1098.08  1146.58
eigval :     1158.42  1161.83  1225.04  1237.48  1268.48  1282.54
eigval :     1289.31  1301.36  1317.00  1363.40  1372.65  1375.73
eigval :     1416.73  1416.94  1489.90  1492.61  1500.26  1501.31
eigval :     1503.77  1505.75  1506.01  1508.65  1509.09  2955.07
eigval :     2956.32  2958.66  2967.67  2970.29  2975.59  2986.30
eigval :     2988.01  2992.68  2995.77  3027.59  3028.31  3030.41
eigval :     3030.97  3036.12  3036.70
 reduced masses (amu)
   1: 10.03   2: 10.09   3: 10.20   4:  8.53   5:  9.39   6:  9.52   7:  8.42   8:  6.18
   9:  6.19  10:  7.21  11:  6.53  12:  2.67  13:  3.80  14:  6.50  15:  8.50  16:  8.52
  17:  8.17  18:  2.42  19:  2.23  20:  3.46  21:  7.22  22:  4.82  23:  3.82  24:  3.57
  25:  6.47  26:  3.82  27:  4.54  28:  8.63  29:  8.44  30:  8.39  31:  6.93  32:  7.18
  33:  4.83  34:  4.26  35:  3.21  36:  2.07  37:  1.84  38:  3.93  39:  3.35  40:  4.69
  41:  5.05  42:  5.26  43:  3.16  44:  3.17  45:  1.87  46:  1.96  47:  1.84  48:  1.84
  49:  1.91  50:  1.53  51:  1.55  52:  1.60  53:  1.70  54:  1.95  55:  1.81  56:  1.88
  57:  1.77  58:  1.81  59:  1.57  60:  1.67  61:  1.56  62:  1.69  63:  1.59  64:  1.96
  65:  1.96  66:  1.90  67:  1.90  68:  1.29  69:  1.29
 IR intensities (km·mol⁻¹)
   1:  0.00   2:  0.00   3:  0.00   4:  0.00   5:  0.00   6:  0.00   7:  0.00   8:  0.03
   9:  0.01  10:  0.12  11:  0.01  12:  0.09  13:  0.01  14:  0.72  15:  0.06  16:  0.03
  17:  0.75  18: 12.57  19:  7.65  20:  0.14  21:  0.92  22:  0.43  23:  0.02  24:  9.39
  25:  2.81  26:  0.37  27:  1.22  28:  0.36  29:  0.00  30:  0.43  31:  1.71  32:  0.85
  33:  0.09  34:  0.51  35:  0.00  36:  0.24  37:  0.05  38:  1.13  39:  1.27  40:  3.49
  41:  0.08  42:  0.01  43:  0.37  44:  0.94  45:  0.25  46:  0.56  47:  0.01  48:  0.50
  49:  0.14  50:  2.70  51:  2.26  52:  2.02  53:  0.37  54: 21.36  55:  2.27  56: 30.82
  57:  3.59  58: 52.50  59: 93.27  60: 28.15  61:  0.10  62: 42.06  63:122.34  64: 51.42
  65: 69.51  66: 21.04  67:115.13  68: 45.75  69: 19.99
 Raman intensities (amu)
   1:  0.00   2:  0.00   3:  0.00   4:  0.00   5:  0.00   6:  0.00   7:  0.00   8:  0.00
   9:  0.00  10:  0.00  11:  0.00  12:  0.00  13:  0.00  14:  0.00  15:  0.00  16:  0.00
  17:  0.00  18:  0.00  19:  0.00  20:  0.00  21:  0.00  22:  0.00  23:  0.00  24:  0.00
  25:  0.00  26:  0.00  27:  0.00  28:  0.00  29:  0.00  30:  0.00  31:  0.00  32:  0.00
  33:  0.00  34:  0.00  35:  0.00  36:  0.00  37:  0.00  38:  0.00  39:  0.00  40:  0.00
  41:  0.00  42:  0.00  43:  0.00  44:  0.00  45:  0.00  46:  0.00  47:  0.00  48:  0.00
  49:  0.00  50:  0.00  51:  0.00  52:  0.00  53:  0.00  54:  0.00  55:  0.00  56:  0.00
  57:  0.00  58:  0.00  59:  0.00  60:  0.00  61:  0.00  62:  0.00  63:  0.00  64:  0.00
  65:  0.00  66:  0.00  67:  0.00  68:  0.00  69:  0.00
 output can be read by thermo (or use thermo option).
 writing <g98.out> molden fake output.
 recommended (thermochemical) frequency scaling factor: 1.0
           -------------------------------------------------
          |             Thermodynamic Functions             |
           -------------------------------------------------

Molecule has the following symmetry elements: (C2) 
It seems to be the C2 point group
c2  symmetry found (for desy threshold:  0.10E+00) used in thermo

          ...................................................
          :                      SETUP                      :
          :.................................................:
          :  # frequencies                          63      :
          :  # imaginary freq.                       0      :
          :  linear?                             false      :
          :  only rotor calc.                    false      :
          :  symmetry                               c2      :
          :  rotational number                       2      :
          :  scaling factor                  1.0000000      :
          :  rotor cutoff                   50.0000000 cm⁻¹ :
          :  imag. cutoff                  -20.0000000 cm⁻¹ :
          :.................................................:

    mode    ω/cm⁻¹     T·S(HO)/kcal·mol⁻¹    T·S(FR)/kcal·mol⁻¹   T·S(vib)
   ------------------------------------------------------------------------
       1     46.73    -1.47617 ( 43.28%)    -1.07628 ( 56.72%)    -1.24936
       2     69.10    -1.24588 ( 78.49%)    -0.96049 ( 21.51%)    -1.18449
       3     73.59    -1.20895 ( 82.44%)    -0.94185 ( 17.56%)    -1.16203
       4    184.79    -0.67962 ( 99.47%)    -0.66923 (  0.53%)    -0.67957
       5    208.77    -0.61252 ( 99.67%)    -0.63309 (  0.33%)    -0.61259
       6    234.71    -0.54938 ( 99.79%)    -0.59841 (  0.21%)    -0.54948
       7    242.71    -0.53158 ( 99.82%)    -0.58848 (  0.18%)    -0.53168
       8    293.36    -0.43366 ( 99.92%)    -0.53234 (  0.08%)    -0.43374
   ------------------------------------------------------------------------

   temp. (K)  partition function   enthalpy   heat capacity  entropy
                                   cal/mol     cal/K/mol   cal/K/mol   J/K/mol
 298.15  VIB   865.                 4224.813     26.766     26.487
         ROT  0.196E+06              888.752      2.981     27.198
         INT  0.170E+09             5113.565     29.747     53.685
         TR   0.970E+27             1481.254      4.968     39.706
         TOT                        6594.8189    34.7148    93.3912   390.7487

       T/K    H(0)-H(T)+PV         H(T)/Eh          T*S/Eh         G(T)/Eh
   ------------------------------------------------------------------------
    298.15    0.105095E-01    0.226327E+00    0.443732E-01    0.181953E+00
   ------------------------------------------------------------------------

         :::::::::::::::::::::::::::::::::::::::::::::::::::::
         ::                  THERMODYNAMIC                  ::
         :::::::::::::::::::::::::::::::::::::::::::::::::::::
         :: total free energy         -22.974532543097 Eh   ::
         ::.................................................::
         :: total energy              -23.156485910767 Eh   ::
         :: zero point energy           0.215817019156 Eh   ::
         :: G(RRHO) w/o ZPVE           -0.033863651487 Eh   ::
         :: G(RRHO) contrib.            0.181953367670 Eh   ::
         :::::::::::::::::::::::::::::::::::::::::::::::::::::
 
 normal mode %tage of torsion character
   1:  0.00   2:  0.00   3:  0.00   4:  0.00   5:  0.00   6:  0.00   7:  0.54   8:  0.54
   9:  0.53  10:  0.56  11:  0.28  12:  0.83  13:  0.74  14:  0.55  15:  0.22  16:  0.11
  17:  0.22  18:  0.56  19:  0.46  20:  0.56  21:  0.17  22:  0.34  23:  0.36  24:  0.26
  25:  0.14  26:  0.17  27:  0.33  28:  0.10  29:  0.05  30:  0.08  31:  0.33  32:  0.33
  33:  0.42  34:  0.37  35:  0.11  36:  0.24  37:  0.14  38:  0.12  39:  0.06  40:  0.10
  41:  0.08  42:  0.06  43:  0.00  44:  0.00  45:  0.65  46:  0.65  47:  0.61  48:  0.65
  49:  0.67  50:  0.93  51:  0.90  52:  0.88  53:  0.83  54:  0.22  55:  0.28  56:  0.31
  57:  0.18  58:  0.13  59:  0.01  60:  0.03  61:  0.05  62:  0.03  63:  0.08  64:  0.06
  65:  0.06  66:  0.03  67:  0.03  68:  0.00  69:  0.00
 recommended # of modes for mode following           4

optimized geometry written to: xtbopt.xyz


           -------------------------------------------------
          | TOTAL ENERGY              -23.156485910767 Eh   |
          | TOTAL ENTHALPY            -22.930159378666 Eh   |
          | TOTAL FREE ENERGY         -22.974532543097 Eh   |
          | GRADIENT NORM               0.000181886512 Eh/α |
          | HOMO-LUMO GAP              13.335284961402 eV   |
           -------------------------------------------------

------------------------------------------------------------------------
 * finished run on 2024/04/23 at 12:10:20.592     
------------------------------------------------------------------------
 total:
 * wall-time:     0 d,  0 h,  0 min,  0.521 sec
 *  cpu-time:     0 d,  0 h,  0 min,  1.880 sec
 * ratio c/w:     3.606 speedup
 SCF:
 * wall-time:     0 d,  0 h,  0 min,  0.032 sec
 *  cpu-time:     0 d,  0 h,  0 min,  0.115 sec
 * ratio c/w:     3.586 speedup
 ANC optimizer:
 * wall-time:     0 d,  0 h,  0 min,  0.097 sec
 *  cpu-time:     0 d,  0 h,  0 min,  0.356 sec
 * ratio c/w:     3.689 speedup
 analytical hessian:
 * wall-time:     0 d,  0 h,  0 min,  0.282 sec
 *  cpu-time:     0 d,  0 h,  0 min,  1.115 sec
 * ratio c/w:     3.951 speedup

