23
 energy: -23.154891771829 gnorm: 0.024725648785 xtb: 6.6.1 (8d0f1dd)
C           -3.02808500000000        1.02254000000000        0.11426900000000
C           -1.84184000000000        0.26429000000000       -0.46155400000000
C           -1.15320100000000       -0.62642700000000        0.57401600000000
C           -0.00023200000000       -1.45817100000000        0.00304900000000
C            1.15356300000000       -0.63008600000000       -0.57115000000000
C            1.84737900000000        0.25820900000000        0.46257700000000
C            3.02297400000000        1.02669400000000       -0.12080200000000
H           -3.78430500000000        0.33779200000000        0.50348000000000
H           -2.72078200000000        1.66522300000000        0.94195300000000
H           -3.51290100000000        1.65690400000000       -0.63193300000000
H           -2.16381400000000       -0.35149700000000       -1.31181800000000
H           -1.11578800000000        0.97177700000000       -0.88166500000000
H           -0.79368600000000       -0.00822500000000        1.40536800000000
H           -1.90243700000000       -1.29050300000000        1.02576400000000
H           -0.39540800000000       -2.12658200000000       -0.77354800000000
H            0.39418600000000       -2.12445800000000        0.78191300000000
H            0.79250700000000       -0.01011000000000       -1.40073400000000
H            1.89978800000000       -1.29625900000000       -1.02514700000000
H            1.12102400000000        0.95975700000000        0.89328700000000
H            2.18014800000000       -0.36042700000000        1.30715000000000
H            2.70428900000000        1.67263400000000       -0.94149200000000
H            3.77896100000000        0.34832400000000       -0.52162200000000
H            3.51155500000000        1.65917500000000        0.62422300000000
23
 energy: -23.156205090608 gnorm: 0.010910300569 xtb: 6.6.1 (8d0f1dd)
C           -3.02517422956987        1.01634491242343        0.11880441302814
C           -1.84011884274970        0.26351750913617       -0.46499802920290
C           -1.15303731564993       -0.62062708706929        0.57450473767172
C           -0.00039168229140       -1.44808460807601        0.00298579665168
C            1.15303463784078       -0.62399187976894       -0.57162355028694
C            1.84530161624988        0.25807939664470        0.46596830845423
C            3.02050944772363        1.02042829743280       -0.12499594056098
H           -3.77623747661279        0.32534249592680        0.50126703644972
H           -2.70960880913972        1.65868448100617        0.94099010932438
H           -3.49805430725308        1.64414717956251       -0.63588119526947
H           -2.17418238938768       -0.35747083052577       -1.30351715051759
H           -1.12120193442718        0.98383762067301       -0.86652993474324
H           -0.78966880115081        0.00054765803898        1.39842485457520
H           -1.89616142196150       -1.30187493683305        1.00443676633317
H           -0.39195261756831       -2.10336754505347       -0.78312890657596
H            0.39034787575461       -2.10109289254337        0.79142137585545
H            0.78860722283418       -0.00149644302925       -1.39408434637066
H            1.89309347711999       -1.30706851397600       -1.00400696885525
H            1.12622713681066        0.97235402624472        0.87827927710639
H            2.19043932646082       -0.36556338738486        1.29815850040217
H            2.69323121839031        1.66582764087595       -0.94014907625886
H            3.77130553258684        0.33572511194450       -0.51925108764140
H            3.49758733599027        1.64637579435027        0.62850901043101
23
 energy: -23.156382076540 gnorm: 0.002299814988 xtb: 6.6.1 (8d0f1dd)
C           -3.02729998544413        1.01401288195626        0.12096884260709
C           -1.83978253189587        0.26435649428309       -0.46673151399926
C           -1.15429220341313       -0.61868125007787        0.57317487622487
C           -0.00042095347168       -1.44452809432167        0.00296538608391
C            1.15409468855868       -0.62178480106547       -0.57032361102177
C            1.84480195126191        0.25919199415578        0.46781008599160
C            3.02277712311008        1.01810490128502       -0.12711603645120
H           -3.77278449098598        0.31855275556969        0.50155165729659
H           -2.70691023892857        1.65314422528885        0.94158207619762
H           -3.49666536902683        1.63927334329769       -0.63565321586338
H           -2.17746444699403       -0.35813338594850       -1.29931944184568
H           -1.12593592726794        0.98999232712297       -0.86057885643219
H           -0.79209117549241        0.00353578927100        1.39368425600343
H           -1.89399382373732       -1.30689837578905        0.99225772157770
H           -0.39027519626227       -2.09258358067448       -0.78700283918376
H            0.38864491962113       -2.09036665525735        0.79513584434594
H            0.79093634988811        0.00155177672470       -1.38952978517798
H            1.89081342202535       -1.31168666571205       -0.99185352809382
H            1.13095558336342        0.97899008181456        0.87217046291909
H            2.19334900767444       -0.36586119366054        1.29396399234213
H            2.69098706995764        1.66036730553690       -0.94075745349648
H            3.76789772892559        0.32868236679383       -0.51923806117282
H            3.49655349853379        1.64134175940665        0.62842314114839
23
 energy: -23.156396525282 gnorm: 0.000610721247 xtb: 6.6.1 (8d0f1dd)
C           -3.02961985395387        1.01306295514093        0.12186123509494
C           -1.84066135190560        0.26496814172353       -0.46779008765622
C           -1.15556956054158       -0.61809061824895        0.57241779739581
C           -0.00042262931498       -1.44343028385299        0.00292772083724
C            1.15531619768855       -0.62107336075060       -0.56957135063081
C            1.84556897453030        0.25999883019115        0.46886072750985
C            3.02519519373674        1.01712191232211       -0.12795859165576
H           -3.77308342740002        0.31571602171696        0.50213997515354
H           -2.70873331322529        1.65090895957657        0.94295499447901
H           -3.50002034865256        1.63832768232331       -0.63370473677226
H           -2.17788791892435       -0.35671823695251       -1.30052369297564
H           -1.12817057856159        0.99199838744122       -0.86020544270779
H           -0.79502141557729        0.00354503535167        1.39363872812292
H           -1.89490218311533       -1.30737168322453        0.98907964505919
H           -0.38948832422956       -2.09074264491481       -0.78738370760522
H            0.38792113567589       -2.08856625808418        0.79536375470696
H            0.79375849296219        0.00167406563123       -1.38948103789332
H            1.89175171024466       -1.31196284503312       -0.98867603395488
H            1.13312241151926        0.98136719641467        0.87160894783130
H            2.19347930263773       -0.36423754370791        1.29524237355488
H            2.69313355800126        1.65814887047398       -0.94211865131978
H            3.76819902419160        0.32562483024088       -0.51965338927276
H            3.50002990421382        1.64030458622138        0.62655482269879
23
 energy: -23.156415525413 gnorm: 0.002938327800 xtb: 6.6.1 (8d0f1dd)
C           -3.03770467198530        1.00932788593273        0.12448725470980
C           -1.84431309383405        0.26789839500077       -0.47019183903866
C           -1.15942973485152       -0.61635888537855        0.56931928064714
C           -0.00037785781709       -1.44004550885764        0.00279230293561
C            1.15902174774728       -0.61886675856659       -0.56655651761780
C            1.84880809001678        0.26358597293886        0.47122719766775
C            3.03360875473607        1.01323175489818       -0.13036683851420
H           -3.77554597859122        0.30581408436184        0.50357726619883
H           -2.71697989150476        1.64392085814209        0.94776959739395
H           -3.51287385579812        1.63532475441404       -0.62697339483624
H           -2.17920858359322       -0.35095030881051       -1.30519815938899
H           -1.13507341738694        0.99915418943954       -0.85916009838625
H           -0.80417279811777        0.00340211525841        1.39387707669960
H           -1.89847954944199       -1.30836213214858        0.98032725401097
H           -0.38685022538743       -2.08669938664098       -0.78853157285309
H            0.38557030700857       -2.08467144826147        0.79600855948148
H            0.80257005903304        0.00195177577430       -1.38979527399468
H            1.89547689371394       -1.31221583668888       -0.97996262437340
H            1.13970465154996        0.98979442604829        0.86979915552458
H            2.19365861153238       -0.35768004995708        1.30034627853316
H            2.70253860365256        1.65116562876503       -0.94692601226787
H            3.77067356616594        0.31491233330341       -0.52042165598430
H            3.51327337315288        1.63694014103279        0.62013676345260
23
 energy: -23.156423468683 gnorm: 0.002076315416 xtb: 6.6.1 (8d0f1dd)
C           -3.03985114974313        1.00766694770459        0.12510347280685
C           -1.84551870805723        0.26903599643344       -0.47017694129501
C           -1.16006052277751       -0.61575333594754        0.56847343287751
C           -0.00035045859290       -1.43872287262013        0.00273142150983
C            1.15963038108850       -0.61810327879908       -0.56576455335990
C            1.84984940664218        0.26494888591389        0.47118289418777
C            3.03586765949768        1.01150131590674       -0.13086390547963
H           -3.77669779882034        0.30248320951694        0.50335404429693
H           -2.72054625976939        1.64202535525194        0.94924592825204
H           -3.51651215402217        1.63386710275737       -0.62538911037421
H           -2.17935373888138       -0.34907656867407       -1.30646842725400
H           -1.13679482656378        1.00163918164235       -0.85817799327690
H           -0.80572119933796        0.00367861352991        1.39391492397754
H           -1.89919004485706       -1.30846066118179        0.97883341745570
H           -0.38593440060024       -2.08576708432318       -0.78902254922938
H            0.38477260771670       -2.08375701733425        0.79633453637118
H            0.80405696692179        0.00234958165093       -1.38989555176949
H            1.89626030799285       -1.31206005854920       -0.97851141376898
H            1.14125751526654        0.99268291060034        0.86849658110953
H            2.19333742639412       -0.35549429346268        1.30180686855910
H            2.70649914261842        1.64922626521746       -0.94841026888214
H            3.77185636820383        0.31130703678495       -0.51990964926918
H            3.51703847968047        1.63535676798106        0.61869684255483
23
 energy: -23.156438433571 gnorm: 0.000769201232 xtb: 6.6.1 (8d0f1dd)
C           -3.04790465623422        1.00104698437109        0.12712131398767
C           -1.84935771398347        0.27323274465610       -0.46961349159804
C           -1.16166513851110       -0.61312657311643        0.56615283933318
C           -0.00023474607769       -1.43378244328889        0.00248773004499
C            1.16116387203566       -0.61487448353288       -0.56369488462562
C            1.85301707584048        0.27001823709514        0.47050217966097
C            3.04435697295969        1.00460206972604       -0.13238723245587
H           -3.78107973287054        0.28953644857986        0.50174560156908
H           -2.73464615836643        1.63462895817120        0.95457168065797
H           -3.52924795293479        1.62767047914555       -0.62051775457375
H           -2.17863021598052       -0.34251050681239       -1.31031111120053
H           -1.14282268156287        1.01107980334652       -0.85339638668290
H           -0.80976758692964        0.00550101097996        1.39385252900017
H           -1.90062101935581       -1.30816489869069        0.97466783323296
H           -0.38305451022305       -2.08182748944610       -0.79065952985120
H            0.38236624851479       -2.07987168928376        0.79732970492075
H            0.80792671630256        0.00461795133523       -1.39015352708500
H            1.89800267417476       -1.31080996458189       -0.97449739959906
H            1.14657219211232        1.00369889352602        0.86239560985063
H            2.19073317765521       -0.34771617366107        1.30639196109447
H            2.72217206006859        1.64163011306583       -0.95376693525964
H            3.77641094387953        0.29729453036021       -0.51707391793424
H            3.53020517948653        1.62869999805535        0.61443718751303
23
 energy: -23.156445231632 gnorm: 0.001400352528 xtb: 6.6.1 (8d0f1dd)
C           -3.05270978046830        0.99682173374380        0.12777925323888
C           -1.85069980827598        0.27543507992866       -0.46857374654523
C           -1.16163395267533       -0.61110092009577        0.56619569563790
C           -0.00016819369078       -1.43105529328188        0.00230918535147
C            1.16110273437530       -0.61250714618296       -0.56393761153806
C            1.85390771690565        0.27277613964112        0.46934868191241
C            3.04944329885305        1.00020665686876       -0.13267579889670
H           -3.78379276392277        0.28153150192374        0.49955140178810
H           -2.74386770097794        1.62996453699744        0.95734044465991
H           -3.53569042042083        1.62325909175744       -0.61908778679925
H           -2.17634109167580       -0.33938374645238       -1.31151965287992
H           -1.14584800768341        1.01662473984175       -0.84931435464267
H           -0.80971884189173        0.00753184231629        1.39395902900158
H           -1.90008804308483       -1.30677482873449        0.97477884873048
H           -0.38258446285151       -2.07930461147514       -0.79102833720399
H            0.38218968156034       -2.07735153233452        0.79726535994023
H            0.80783806623247        0.00687090254806       -1.39054337374629
H            1.89770088126980       -1.30888169865664       -0.97467094072963
H            1.14910406648497        1.01024185608747        0.85737137424724
H            2.18717687112265       -0.34380355940336        1.30803431678531
H            2.73245385511095        1.63677528232419       -0.95655517853234
H            3.77930001123440        0.28863880302240       -0.51392752456120
H            3.53682088446964        1.62405916961601        0.61348471478178
23
 energy: -23.156464293150 gnorm: 0.001513968419 xtb: 6.6.1 (8d0f1dd)
C           -3.06113547100459        0.98873878561471        0.12786975331174
C           -1.85094134160898        0.27892129586119       -0.46499227857708
C           -1.15944179802199       -0.60667036279580        0.56920127271847
C           -0.00003669993562       -1.42685771795098        0.00191423765756
C            1.15889932244422       -0.60748139190240       -0.56743130218422
C            1.85320791257942        0.27734304195483        0.46548221739452
C            3.05842008674575        0.99179424230396       -0.13194273932875
H           -3.78895821064241        0.26664484364529        0.49279407589805
H           -2.76201748787797        1.62110562397331        0.96166797716238
H           -3.54464443958511        1.61430335307889       -0.61938362440423
H           -2.16796804780958       -0.33517937554154       -1.31163294743042
H           -1.14968284530266        1.02662500124993       -0.83931902214146
H           -0.80442647601381        0.01278869938685        1.39482755464921
H           -1.89655695408341       -1.30181222016797        0.98059939602486
H           -0.38456207602202       -2.07497921194885       -0.79037114613715
H            0.38472861879675       -2.07301431374411        0.79569326754965
H            0.80261542901951        0.01243246747432       -1.39214943375726
H            1.89470053677849       -1.30300068527107       -0.98055262389282
H            1.15187258325517        1.02219416863471        0.84532417735953
H            2.17616523412521       -0.33803135479573        1.30897005275983
H            2.75282374915547        1.62739777530889       -0.96096039647407
H            3.78497687703805        0.27252098965044       -0.50491773207661
H            3.54585649797009        1.61479034598110        0.61489326391825
23
 energy: -23.156483017112 gnorm: 0.000763724883 xtb: 6.6.1 (8d0f1dd)
C           -3.07618870340694        0.97525190352348        0.12818809189250
C           -1.85115595313880        0.28469848092822       -0.45908345471428
C           -1.15609501790376       -0.59886848109736        0.57455490390868
C            0.00016657033322       -1.41973691683589        0.00121620313297
C            1.15554622897119       -0.59871479251245       -0.57362027247457
C            1.85183612223507        0.28493998757523        0.45907775101891
C            3.07441707910687        0.97777750068526       -0.13084696926113
H           -3.79793981913110        0.24095676873522        0.48104347979518
H           -2.79248877088480        1.60517649322211        0.96925022125844
H           -3.56040660308972        1.59993084910405       -0.61924582182026
H           -2.15338577251009       -0.32823489723110       -1.31195529317708
H           -1.15671363506603        1.04394931185198       -0.82288931528983
H           -0.79650684531769        0.02152789600603        1.39737988207284
H           -1.89135056068059       -1.29326723311342        0.99017920624056
H           -0.38904307974925       -2.06750704492075       -0.78887367780521
H            0.39004998903903       -2.06567833760461        0.79247984223002
H            0.79480341290141        0.02159528825134       -1.39598735500876
H            1.89041383626917       -1.29296067491875       -0.99018602150382
H            1.15713805554794        1.04285470335334        0.82539791752789
H            2.15711750075925       -0.32842129614811        1.31067097424245
H            2.78718248931386        1.61048077479687       -0.96874275809134
H            3.79493834432293        0.24475356714488       -0.48908773175975
H            3.56156013207878        1.60007014920442        0.61666419758557
23
 energy: -23.156485910738 gnorm: 0.000181888390 xtb: 6.6.1 (8d0f1dd)
C           -3.08187248771695        0.97019489155423        0.12820471774660
C           -1.85160374359966        0.28676921336550       -0.45674773710106
C           -1.15495351283488       -0.59566636249258        0.57657744864444
C            0.00021936879954       -1.41667543002101        0.00094294962023
C            1.15444932457567       -0.59526423322320       -0.57597429675049
C            1.85179288779027        0.28760839464181        0.45648242843820
C            3.08037491687913        0.97253542661957       -0.13025337605651
H           -3.80112407309678        0.23153447987085        0.47604665850625
H           -2.80367699549163        1.59829756795971        0.97207409144204
H           -3.56605530039563        1.59478547980164       -0.61913601519338
H           -2.14851513517049       -0.32558571156567       -1.31158613797713
H           -1.16038083345924        1.05021911765830       -0.81711812570805
H           -0.79397295160675        0.02488706696347        1.39858384199076
H           -1.88933523512092       -1.29002418162143        0.99369624805394
H           -0.39107321446162       -2.06421992243726       -0.78817928829831
H            0.39223485692858       -2.06256870240724        0.79106235225676
H            0.79237978986501        0.02496174931686       -1.39773534503267
H            1.88875285835817       -1.28934355018277       -0.99369380809949
H            1.16036955091185        1.05016526736677        0.81835062036195
H            2.15078315258455       -0.32471999752783        1.31062134725421
H            2.79972189169903        1.60294547411749       -0.97159904762145
H            3.79845457247769        0.23472360977278       -0.48232742909514
H            3.56692531208502        1.59501435246999        0.61729190261829
