      -----------------------------------------------------------      
     |                   =====================                   |     
     |                           x T B                           |     
     |                   =====================                   |     
     |                         S. Grimme                         |     
     |          Mulliken Center for Theoretical Chemistry        |     
     |                    University of Bonn                     |     
      -----------------------------------------------------------      

   * xtb version 6.6.1 (8d0f1dd) compiled by 'stahn@M-Bot' on 2023-08-01

   xtb is free software: you can redistribute it and/or modify it under
   the terms of the GNU Lesser General Public License as published by
   the Free Software Foundation, either version 3 of the License, or
   (at your option) any later version.
   
   xtb is distributed in the hope that it will be useful,
   but WITHOUT ANY WARRANTY; without even the implied warranty of
   MERCHANTABILITY or FITNESS FOR A PARTICULAR PURPOSE.  See the
   GNU Lesser General Public License for more details.
   
   Cite this work as:
   * C. Bannwarth, E. Caldeweyher, S. Ehlert, A. Hansen, P. Pracht,
     J. Seibert, S. Spicher, S. Grimme, WIREs Comput. Mol. Sci., 2020, 11,
     e01493. DOI: 10.1002/wcms.1493
   
   for GFN2-xTB:
   * C. Bannwarth, S. Ehlert and S. Grimme., J. Chem. Theory Comput., 2019,
     15, 1652-1671. DOI: 10.1021/acs.jctc.8b01176
   for GFN1-xTB:
   * S. Grimme, C. Bannwarth, P. Shushkov, J. Chem. Theory Comput., 2017,
     13, 1989-2009. DOI: 10.1021/acs.jctc.7b00118
   for GFN0-xTB:
   * P. Pracht, E. Caldeweyher, S. Ehlert, S. Grimme, ChemRxiv, 2019, preprint.
     DOI: 10.26434/chemrxiv.8326202.v1
   for GFN-FF:
   * S. Spicher and S. Grimme, Angew. Chem. Int. Ed., 2020, 59, 15665-15673.
     DOI: 10.1002/anie.202004239
   
   for ALPB and GBSA implicit solvation:
   * S. Ehlert, M. Stahn, S. Spicher, S. Grimme, J. Chem. Theory Comput.,
     2021, 17, 4250-4261. DOI: 10.1021/acs.jctc.1c00471
   
   for DFT-D4:
   * E. Caldeweyher, C. Bannwarth and S. Grimme, J. Chem. Phys., 2017,
     147, 034112. DOI: 10.1063/1.4993215
   * E. Caldeweyher, S. Ehlert, A. Hansen, H. Neugebauer, S. Spicher,
     C. Bannwarth and S. Grimme, J. Chem. Phys., 2019, 150, 154122.
     DOI: 10.1063/1.5090222
   * E. Caldeweyher, J.-M. Mewes, S. Ehlert and S. Grimme, Phys. Chem. Chem. Phys.
     2020, 22, 8499-8512. DOI: 10.1039/D0CP00502A
   
   for sTDA-xTB:
   * S. Grimme and C. Bannwarth, J. Chem. Phys., 2016, 145, 054103.
     DOI: 10.1063/1.4959605
   
   in the mass-spec context:
   * V. Asgeirsson, C. Bauer and S. Grimme, Chem. Sci., 2017, 8, 4879.
     DOI: 10.1039/c7sc00601b
   * J. Koopman and S. Grimme, ACS Omega 2019, 4, 12, 15120-15133.
     DOI: 10.1021/acsomega.9b02011
   
   for metadynamics refer to:
   * S. Grimme, J. Chem. Theory Comput., 2019, 155, 2847-2862
     DOI: 10.1021/acs.jctc.9b00143
   
   for SPH calculations refer to:
   * S. Spicher and S. Grimme, J. Chem. Theory Comput., 2021, 17, 1701-1714
     DOI: 10.1021/acs.jctc.0c01306
   
   with help from (in alphabetical order)
   P. Atkinson, C. Bannwarth, F. Bohle, G. Brandenburg, E. Caldeweyher
   M. Checinski, S. Dohm, S. Ehlert, S. Ehrlich, I. Gerasimov, C. Hölzer
   A. Katbashev, J. Koopman, C. Lavigne, S. Lehtola, F. März, M. Müller,
   F. Musil, H. Neugebauer, J. Pisarek, C. Plett, P. Pracht, F. Pultar,
   J. Seibert, P. Shushkov, S. Spicher, M. Stahn, M. Steiner, T. Strunk,
   J. Stückrath, T. Rose, and J. Unsleber
   
 * started run on 2024/04/23 at 12:10:27.231     

           -------------------------------------------------
          |                Calculation Setup                |
           -------------------------------------------------

          program call               : xtb unfolded.xyz --gfn 2 --ohess -P 4
          coordinate file            : unfolded.xyz
          omp threads                :                     4

   ID    Z sym.   atoms
    1    6 C      1-11
    2    1 H      12-35

           -------------------------------------------------
          |                 G F N 2 - x T B                 |
           -------------------------------------------------

        Reference                      10.1021/acs.jctc.8b01176
      * Hamiltonian:
        H0-scaling (s, p, d)           1.850000    2.230000    2.230000
        zeta-weighting                 0.500000
      * Dispersion:
        s8                             2.700000
        a1                             0.520000
        a2                             5.000000
        s9                             5.000000
      * Repulsion:
        kExp                           1.500000    1.000000
        rExp                           1.000000
      * Coulomb:
        alpha                          2.000000
        third order                    shell-resolved
        anisotropic                    true
        a3                             3.000000
        a5                             4.000000
        cn-shift                       1.200000
        cn-exp                         4.000000
        max-rad                        5.000000


          ...................................................
          :                      SETUP                      :
          :.................................................:
          :  # basis functions                  68          :
          :  # atomic orbitals                  68          :
          :  # shells                           46          :
          :  # electrons                        68          :
          :  max. iterations                   250          :
          :  Hamiltonian                  GFN2-xTB          :
          :  restarted?                      false          :
          :  GBSA solvation                  false          :
          :  PC potential                    false          :
          :  electronic temp.          300.0000000     K    :
          :  accuracy                    1.0000000          :
          :  -> integral cutoff          0.2500000E+02      :
          :  -> integral neglect         0.1000000E-07      :
          :  -> SCF convergence          0.1000000E-05 Eh   :
          :  -> wf. convergence          0.1000000E-03 e    :
          :  Broyden damping             0.4000000          :
          ...................................................

 iter      E             dE          RMSdq      gap      omega  full diag
   1    -36.2400044 -0.362400E+02  0.252E+00   12.33       0.0  T
   2    -36.3331255 -0.931211E-01  0.135E+00   12.20       1.0  T
   3    -36.3343156 -0.119003E-02  0.719E-01   12.19       1.0  T
   4    -36.3345779 -0.262315E-03  0.846E-02   12.22       1.0  T
   5    -36.3345862 -0.830494E-05  0.441E-02   12.22       1.0  T
   6    -36.3345882 -0.203355E-05  0.226E-03   12.22       7.5  T
   7    -36.3345883 -0.446879E-07  0.102E-03   12.22      16.5  T
   8    -36.3345883 -0.323350E-08  0.261E-04   12.22      64.8  T
   9    -36.3345883 -0.139984E-09  0.895E-05   12.22     188.8  T

   *** convergence criteria satisfied after 9 iterations ***

         #    Occupation            Energy/Eh            Energy/eV
      -------------------------------------------------------------
         1        2.0000           -0.6220538             -16.9269
       ...           ...                  ...                  ...
        28        2.0000           -0.4304045             -11.7119
        29        2.0000           -0.4263717             -11.6022
        30        2.0000           -0.4213396             -11.4652
        31        2.0000           -0.4178650             -11.3707
        32        2.0000           -0.4160514             -11.3213
        33        2.0000           -0.4148288             -11.2881
        34        2.0000           -0.4101798             -11.1616 (HOMO)
        35                          0.0390317               1.0621 (LUMO)
        36                          0.0563883               1.5344
        37                          0.0965166               2.6264
        38                          0.0996282               2.7110
        39                          0.1153976               3.1401
       ...                                ...                  ...
        68                          0.3093521               8.4179
      -------------------------------------------------------------
                  HL-Gap            0.4492115 Eh           12.2237 eV
             Fermi-level           -0.1855741 Eh           -5.0497 eV

 SCC (total)                   0 d,  0 h,  0 min,  0.038 sec
 SCC setup                      ...        0 min,  0.004 sec ( 10.082%)
 Dispersion                     ...        0 min,  0.001 sec (  2.681%)
 classical contributions        ...        0 min,  0.001 sec (  1.905%)
 integral evaluation            ...        0 min,  0.001 sec (  2.817%)
 iterations                     ...        0 min,  0.027 sec ( 72.091%)
 molecular gradient             ...        0 min,  0.004 sec (  9.490%)
 printout                       ...        0 min,  0.000 sec (  0.835%)

         :::::::::::::::::::::::::::::::::::::::::::::::::::::
         ::                     SUMMARY                     ::
         :::::::::::::::::::::::::::::::::::::::::::::::::::::
         :: total energy             -35.812662809055 Eh    ::
         :: gradient norm              0.030148763783 Eh/a0 ::
         :: HOMO-LUMO gap             12.223666006135 eV    ::
         ::.................................................::
         :: SCC energy               -36.334588270643 Eh    ::
         :: -> isotropic ES            0.005809967674 Eh    ::
         :: -> anisotropic ES          0.012013861805 Eh    ::
         :: -> anisotropic XC          0.021559608252 Eh    ::
         :: -> dispersion             -0.021793052102 Eh    ::
         :: repulsion energy           0.522068440125 Eh    ::
         :: add. restraining           0.000000000000 Eh    ::
         :: total charge               0.000000000000 e     ::
         :::::::::::::::::::::::::::::::::::::::::::::::::::::

      ----------------------------------------------------------- 
     |                   =====================                   |
     |                        A N C O P T                        |
     |                   =====================                   |
     |               Approximate Normal Coordinate               |
     |                Rational Function Optimizer                |
      ----------------------------------------------------------- 

          ...................................................
          :                      SETUP                      :
          :.................................................:
          :   optimization level            normal          :
          :   max. optcycles                   200          :
          :   ANC micro-cycles                  20          :
          :   degrees of freedom                99          :
          :.................................................:
          :   RF solver                   davidson          :
          :   write xtbopt.log                true          :
          :   linear?                        false          :
          :   energy convergence         0.5000000E-05 Eh   :
          :   grad. convergence          0.1000000E-02 Eh/α :
          :   maxmium RF displ.          2.0000000          :
          :   Hlow (freq-cutoff)         0.2000000E-01      :
          :   Hmax (freq-cutoff)         5.0000000          :
          :   S6 in model hess.         70.0000000          :
          ...................................................

generating ANC from model Hessian ...
Using Lindh-Hessian (1995)
 Shifting diagonal of input Hessian by   1.935196711305522E-002
 Lowest  eigenvalues of input Hessian
    0.000000    0.000000    0.000000    0.000000    0.000000    0.000000
    0.020000    0.021482    0.021753    0.022167    0.023115    0.024191
    0.024749    0.025990    0.026386    0.026923    0.029224    0.031595
 Highest eigenvalues
    1.226052    1.237352    1.250655    1.275062    1.315122    1.333194
 

........................................................................
.............................. CYCLE    1 ..............................
........................................................................

 iter      E             dE          RMSdq      gap      omega  full diag
   1    -36.3345883 -0.363346E+02  0.221E-05   12.22       0.0  T
   2    -36.3345883 -0.319034E-11  0.115E-05   12.22    1468.0  T
   3    -36.3345883 -0.220268E-12  0.576E-06   12.22    2933.1  T
     SCC iter.                  ...        0 min,  0.003 sec
     gradient                   ...        0 min,  0.003 sec
 * total energy  :   -35.8126628 Eh     change       -0.1521272E-10 Eh
   gradient norm :     0.0301485 Eh/α   predicted     0.0000000E+00 (-100.00%)
   displ. norm   :     0.1736797 α      lambda       -0.2942592E-02
   maximum displ.:     0.0906581 α      in ANC's #44, #43, #11, ...

........................................................................
.............................. CYCLE    2 ..............................
........................................................................

 iter      E             dE          RMSdq      gap      omega  full diag
   1    -36.3440615 -0.363441E+02  0.127E-01   12.34       0.0  T
   2    -36.3440660 -0.445178E-05  0.728E-02   12.34       1.0  T
   3    -36.3440668 -0.780893E-06  0.370E-03   12.34       4.6  T
   4    -36.3440668 -0.617624E-07  0.128E-03   12.34      13.2  T
   5    -36.3440668 -0.254388E-08  0.680E-04   12.34      24.9  T
   6    -36.3440668 -0.385889E-09  0.400E-05   12.34     422.9  T
     SCC iter.                  ...        0 min,  0.005 sec
     gradient                   ...        0 min,  0.003 sec
 * total energy  :   -35.8146096 Eh     change       -0.1946795E-02 Eh
   gradient norm :     0.0135321 Eh/α   predicted    -0.1515686E-02 ( -22.14%)
   displ. norm   :     0.1006370 α      lambda       -0.5712322E-03
   maximum displ.:     0.0482697 α      in ANC's #11, #44, #7, ...

........................................................................
.............................. CYCLE    3 ..............................
........................................................................

 iter      E             dE          RMSdq      gap      omega  full diag
   1    -36.3508776 -0.363509E+02  0.627E-02   12.42       0.0  T
   2    -36.3508804 -0.287875E-05  0.354E-02   12.42       1.0  T
   3    -36.3508806 -0.135659E-06  0.389E-03   12.42       4.3  T
   4    -36.3508806 -0.308054E-07  0.665E-04   12.42      25.4  T
   5    -36.3508806 -0.210002E-08  0.373E-04   12.42      45.3  T
     SCC iter.                  ...        0 min,  0.004 sec
     gradient                   ...        0 min,  0.005 sec
 * total energy  :   -35.8149218 Eh     change       -0.3122428E-03 Eh
   gradient norm :     0.0021235 Eh/α   predicted    -0.2885379E-03 (  -7.59%)
   displ. norm   :     0.0303685 α      lambda       -0.2503746E-04
   maximum displ.:     0.0202264 α      in ANC's #11, #7, #10, ...

........................................................................
.............................. CYCLE    4 ..............................
........................................................................

 iter      E             dE          RMSdq      gap      omega  full diag
   1    -36.3521344 -0.363521E+02  0.984E-03   12.44       0.0  T
   2    -36.3521345 -0.978077E-07  0.554E-03   12.44       3.1  T
   3    -36.3521345 -0.320421E-08  0.787E-04   12.44      21.5  T
   4    -36.3521345 -0.886509E-09  0.152E-04   12.44     111.5  T
     SCC iter.                  ...        0 min,  0.003 sec
     gradient                   ...        0 min,  0.003 sec
 * total energy  :   -35.8149413 Eh     change       -0.1941823E-04 Eh
   gradient norm :     0.0008484 Eh/α   predicted    -0.1332007E-04 ( -31.40%)
   displ. norm   :     0.0607453 α      lambda       -0.1936167E-04
   maximum displ.:     0.0398990 α      in ANC's #11, #7, #10, ...

........................................................................
.............................. CYCLE    5 ..............................
........................................................................

 iter      E             dE          RMSdq      gap      omega  full diag
   1    -36.3532508 -0.363533E+02  0.153E-02   12.48       0.0  T
   2    -36.3532508 -0.645636E-07  0.887E-03   12.48       1.9  T
   3    -36.3532508 -0.109079E-07  0.550E-04   12.49      30.7  T
   4    -36.3532508 -0.103087E-08  0.241E-04   12.49      70.3  T
     SCC iter.                  ...        0 min,  0.003 sec
     gradient                   ...        0 min,  0.003 sec
 * total energy  :   -35.8149544 Eh     change       -0.1311954E-04 Eh
   gradient norm :     0.0017834 Eh/α   predicted    -0.9700046E-05 ( -26.06%)
   displ. norm   :     0.0130302 α      lambda       -0.4144958E-05
   maximum displ.:     0.0084242 α      in ANC's #1, #12, #6, ...

........................................................................
.............................. CYCLE    6 ..............................
........................................................................

 iter      E             dE          RMSdq      gap      omega  full diag
   1    -36.3527524 -0.363528E+02  0.300E-03   12.49       0.0  T
   2    -36.3527524 -0.331439E-07  0.170E-03   12.49      10.0  T
   3    -36.3527524 -0.511470E-09  0.513E-04   12.49      32.9  T
   4    -36.3527524 -0.182730E-09  0.636E-05   12.49     265.9  T
     SCC iter.                  ...        0 min,  0.003 sec
     gradient                   ...        0 min,  0.003 sec
 * total energy  :   -35.8149590 Eh     change       -0.4651536E-05 Eh
   gradient norm :     0.0005180 Eh/α   predicted    -0.2076553E-05 ( -55.36%)
   displ. norm   :     0.0316984 α      lambda       -0.4099238E-05
   maximum displ.:     0.0226477 α      in ANC's #1, #12, #6, ...

   *** GEOMETRY OPTIMIZATION CONVERGED AFTER 6 ITERATIONS ***

------------------------------------------------------------------------
 total energy gain   :        -0.0022962 Eh       -1.4409 kcal/mol
 total RMSD          :         0.0549871 a0        0.0291 Å
 total power (kW/mol):        -1.0047908 (step)  -97.5999 (real)
------------------------------------------------------------------------

 ANCopt (total)                0 d,  0 h,  0 min,  0.062 sec
 optimizer setup                ...        0 min,  0.001 sec (  2.121%)
 model hessian                  ...        0 min,  0.010 sec ( 16.470%)
 ANC generation                 ...        0 min,  0.001 sec (  1.616%)
 coordinate transformation      ...        0 min,  0.000 sec (  0.156%)
 single point calculation       ...        0 min,  0.047 sec ( 76.140%)
 optimization log               ...        0 min,  0.001 sec (  1.126%)
 hessian update                 ...        0 min,  0.000 sec (  0.133%)
 rational function              ...        0 min,  0.001 sec (  0.820%)

================
 final structure:
================
35
 xtb: 6.6.1 (8d0f1dd)
C           -5.73813050625197        1.17720838795711        0.14048296697460
C           -4.30314375340311        1.07635839975109       -0.36214489027551
C           -3.57430057105030       -0.12992522853858        0.22510783802915
C           -2.13194170269553       -0.21871720805679       -0.26750556399996
C           -1.39855492780438       -1.42158803089084        0.32151252914397
C            0.02929100744059       -1.57646455166410       -0.20410836592189
C            0.96581972654179       -0.46056049630141        0.25328000197208
C            2.39825919885041       -0.68382964400399       -0.22542749013789
C            3.32728770610749        0.44442717694246        0.21582178012208
C            4.75817697388911        0.24179570651022       -0.27558580299946
C            5.67248418050566        1.38114751778642        0.15862193049491
H           -6.29912325880887        0.28404363210168       -0.12598569054868
H           -6.23730762721593        2.03936631871257       -0.29573233214361
H           -5.75613792913243        1.28128774063368        1.22324604615837
H           -4.30480328178497        0.99951062166509       -1.45191798235622
H           -3.76171421389685        1.98745045023918       -0.09673911915728
H           -4.10896115047853       -1.04311100496904       -0.04732740300037
H           -3.57895706592030       -0.05853341606709        1.31547848878506
H           -1.61153715411672        0.70084369325717        0.00506970875302
H           -2.12703242519093       -0.29285162255878       -1.35771229068218
H           -1.96088777374786       -2.32682704418313        0.07880273841374
H           -1.37369994047069       -1.33214421147599        1.41017681810182
H            0.00992277086442       -1.60667512182163       -1.29613189175280
H            0.42877413887788       -2.53238621573453        0.14403713181598
H            0.95441387324134       -0.40542879161453        1.34448485141207
H            0.61354572778389        0.49781761373322       -0.13148932464317
H            2.76961501061792       -1.63369569814731        0.16676697588616
H            2.40680266479826       -0.75260939988729       -1.31597460046222
H            2.94701502640134        1.39415956344799       -0.16837571256635
H            3.32598046343316        0.50680517727032        1.30672804366163
H            5.14355699218455       -0.70278254802149        0.11502282790391
H            4.75765798005253        0.17238089588883       -1.36583825594503
H            5.31219065151044        2.32916691703003       -0.23518557971953
H            6.68504797361564        1.22110089623057       -0.20431949359561
H            5.70350321525296        1.45238252477891        1.24375311227919
           -------------------------------------------------
          |                Final Singlepoint                |
           -------------------------------------------------

          ...................................................
          :                      SETUP                      :
          :.................................................:
          :  # basis functions                  68          :
          :  # atomic orbitals                  68          :
          :  # shells                           46          :
          :  # electrons                        68          :
          :  max. iterations                   250          :
          :  Hamiltonian                  GFN2-xTB          :
          :  restarted?                      false          :
          :  GBSA solvation                  false          :
          :  PC potential                    false          :
          :  electronic temp.          300.0000000     K    :
          :  accuracy                    1.0000000          :
          :  -> integral cutoff          0.2500000E+02      :
          :  -> integral neglect         0.1000000E-07      :
          :  -> SCF convergence          0.1000000E-05 Eh   :
          :  -> wf. convergence          0.1000000E-03 e    :
          :  Broyden damping             0.4000000          :
          ...................................................

 iter      E             dE          RMSdq      gap      omega  full diag
   1    -36.3527524 -0.363528E+02  0.315E-05   12.49       0.0  T
   2    -36.3527524 -0.646594E-12  0.178E-05   12.49     949.2  T
   3    -36.3527524 -0.113687E-12  0.199E-06   12.49    8487.6  T

   *** convergence criteria satisfied after 3 iterations ***

         #    Occupation            Energy/Eh            Energy/eV
      -------------------------------------------------------------
         1        2.0000           -0.6230288             -16.9535
       ...           ...                  ...                  ...
        28        2.0000           -0.4290869             -11.6760
        29        2.0000           -0.4267630             -11.6128
        30        2.0000           -0.4218923             -11.4803
        31        2.0000           -0.4187352             -11.3944
        32        2.0000           -0.4178156             -11.3693
        33        2.0000           -0.4129543             -11.2371
        34        2.0000           -0.4113386             -11.1931 (HOMO)
        35                          0.0475312               1.2934 (LUMO)
        36                          0.0647661               1.7624
        37                          0.1081284               2.9423
        38                          0.1105760               3.0089
        39                          0.1149089               3.1268
       ...                                ...                  ...
        68                          0.3264806               8.8840
      -------------------------------------------------------------
                  HL-Gap            0.4588698 Eh           12.4865 eV
             Fermi-level           -0.1819037 Eh           -4.9499 eV

 SCC (total)                   0 d,  0 h,  0 min,  0.008 sec
 SCC setup                      ...        0 min,  0.000 sec (  4.005%)
 Dispersion                     ...        0 min,  0.000 sec (  2.782%)
 classical contributions        ...        0 min,  0.000 sec (  3.816%)
 integral evaluation            ...        0 min,  0.001 sec ( 10.046%)
 iterations                     ...        0 min,  0.003 sec ( 37.288%)
 molecular gradient             ...        0 min,  0.003 sec ( 37.339%)
 printout                       ...        0 min,  0.000 sec (  4.324%)

         :::::::::::::::::::::::::::::::::::::::::::::::::::::
         ::                     SUMMARY                     ::
         :::::::::::::::::::::::::::::::::::::::::::::::::::::
         :: total energy             -35.814959036635 Eh    ::
         :: gradient norm              0.000518174549 Eh/a0 ::
         :: HOMO-LUMO gap             12.486482921794 eV    ::
         ::.................................................::
         :: SCC energy               -36.352752389742 Eh    ::
         :: -> isotropic ES            0.006215662674 Eh    ::
         :: -> anisotropic ES          0.011536012446 Eh    ::
         :: -> anisotropic XC          0.021875079282 Eh    ::
         :: -> dispersion             -0.021875961112 Eh    ::
         :: repulsion energy           0.537939242700 Eh    ::
         :: add. restraining           0.000000000000 Eh    ::
         :: total charge               0.000000000000 e     ::
         :::::::::::::::::::::::::::::::::::::::::::::::::::::

           ------------------------------------------------- 
          |                Numerical Hessian                |
           ------------------------------------------------- 
step length          :   0.00500
SCC accuracy         :   0.30000
Hessian scale factor :   1.00000
frozen atoms in %    :   0.00000    0
RMS gradient         :   0.00052
estimated CPU  time      0.21 min
estimated wall time      0.05 min

writing file <hessian>.

 projected vibrational frequencies (cm⁻¹)
eigval :       -0.00     0.00     0.00     0.00     0.00     0.00
eigval :       33.31    34.35    35.28    70.08    86.82   109.09
eigval :      116.49   127.12   130.07   162.91   231.12   233.14
eigval :      238.17   255.27   324.38   380.37   420.06   450.11
eigval :      529.33   765.39   770.81   778.68   793.62   825.38
eigval :      865.76   903.42   936.13   942.43   960.59   973.17
eigval :     1009.38  1027.44  1056.29  1078.89  1093.25  1102.53
eigval :     1103.57  1112.84  1122.88  1130.60  1144.78  1175.89
eigval :     1208.53  1217.71  1244.79  1248.34  1260.20  1268.67
eigval :     1277.68  1283.44  1290.16  1291.27  1297.15  1307.06
eigval :     1324.72  1347.56  1367.33  1375.23  1378.42  1380.76
eigval :     1415.90  1415.94  1491.12  1491.18  1495.86  1497.13
eigval :     1497.71  1499.32  1500.63  1502.50  1504.51  1504.68
eigval :     1504.71  1507.88  1508.00  2953.98  2955.43  2956.94
eigval :     2957.30  2960.67  2965.68  2969.03  2972.80  2973.52
eigval :     2974.54  2975.25  2976.81  2978.74  2980.67  2983.86
eigval :     2984.75  2990.61  2996.95  3030.19  3030.68  3032.75
eigval :     3032.96  3038.17  3038.51
           -------------------------------------------------
          |                Property Printout                |
           -------------------------------------------------

    * Orbital Energies and Occupations

         #    Occupation            Energy/Eh            Energy/eV
      -------------------------------------------------------------
         1        2.0000           -0.6230288             -16.9535
       ...           ...                  ...                  ...
        22        2.0000           -0.4630484             -12.6002
        23        2.0000           -0.4516534             -12.2901
        24        2.0000           -0.4478481             -12.1866
        25        2.0000           -0.4416463             -12.0178
        26        2.0000           -0.4365362             -11.8788
        27        2.0000           -0.4326580             -11.7732
        28        2.0000           -0.4290869             -11.6760
        29        2.0000           -0.4267630             -11.6128
        30        2.0000           -0.4218923             -11.4803
        31        2.0000           -0.4187352             -11.3944
        32        2.0000           -0.4178156             -11.3693
        33        2.0000           -0.4129543             -11.2371
        34        2.0000           -0.4113386             -11.1931 (HOMO)
        35                          0.0475312               1.2934 (LUMO)
        36                          0.0647661               1.7624
        37                          0.1081284               2.9423
        38                          0.1105760               3.0089
        39                          0.1149089               3.1268
        40                          0.1198751               3.2620
        41                          0.1295801               3.5261
        42                          0.1318448               3.5877
        43                          0.1419276               3.8620
        44                          0.1471790               4.0049
        45                          0.1495989               4.0708
       ...                                ...                  ...
        68                          0.3264806               8.8840
      -------------------------------------------------------------
                  HL-Gap            0.4588698 Eh           12.4865 eV
             Fermi-level           -0.1819037 Eh           -4.9499 eV

     #   Z          covCN         q      C6AA      α(0)
     1   6 C        3.752    -0.102    22.510     6.766
     2   6 C        3.801    -0.053    21.521     6.605
     3   6 C        3.803    -0.059    21.635     6.622
     4   6 C        3.802    -0.059    21.632     6.622
     5   6 C        3.802    -0.058    21.615     6.619
     6   6 C        3.802    -0.058    21.618     6.620
     7   6 C        3.803    -0.059    21.627     6.621
     8   6 C        3.803    -0.058    21.624     6.620
     9   6 C        3.803    -0.059    21.631     6.621
    10   6 C        3.801    -0.053    21.523     6.605
    11   6 C        3.752    -0.102    22.510     6.766
    12   1 H        0.925     0.033     2.543     2.494
    13   1 H        0.925     0.032     2.552     2.498
    14   1 H        0.925     0.033     2.543     2.494
    15   1 H        0.924     0.028     2.610     2.527
    16   1 H        0.924     0.028     2.611     2.527
    17   1 H        0.924     0.029     2.605     2.524
    18   1 H        0.924     0.029     2.598     2.520
    19   1 H        0.924     0.031     2.573     2.509
    20   1 H        0.924     0.029     2.603     2.523
    21   1 H        0.924     0.028     2.610     2.526
    22   1 H        0.924     0.029     2.594     2.519
    23   1 H        0.924     0.029     2.595     2.519
    24   1 H        0.924     0.028     2.610     2.526
    25   1 H        0.924     0.029     2.596     2.520
    26   1 H        0.924     0.031     2.568     2.506
    27   1 H        0.924     0.028     2.621     2.532
    28   1 H        0.924     0.028     2.615     2.529
    29   1 H        0.924     0.030     2.593     2.518
    30   1 H        0.924     0.030     2.593     2.518
    31   1 H        0.924     0.028     2.610     2.527
    32   1 H        0.924     0.028     2.609     2.526
    33   1 H        0.925     0.033     2.542     2.493
    34   1 H        0.925     0.033     2.551     2.498
    35   1 H        0.925     0.033     2.542     2.493

 Mol. C6AA /au·bohr⁶  :       8060.572654
 Mol. C8AA /au·bohr⁸  :     167794.701562
 Mol. α(0) /au        :        133.451562


Wiberg/Mayer (AO) data.
largest (>0.10) Wiberg bond orders for each atom

 ---------------------------------------------------------------------------
     #   Z sym  total        # sym  WBO       # sym  WBO       # sym  WBO
 ---------------------------------------------------------------------------
     1   6 C    3.997 --     2 C    1.019    14 H    0.988    12 H    0.988
                            13 H    0.988
     2   6 C    3.998 --     1 C    1.019     3 C    1.008    15 H    0.979
                            16 H    0.979
     3   6 C    3.997 --     2 C    1.008     4 C    1.007    18 H    0.978
                            17 H    0.978
     4   6 C    3.998 --     5 C    1.008     3 C    1.007    20 H    0.977
                            19 H    0.975
     5   6 C    3.997 --     4 C    1.008     6 C    1.006    22 H    0.977
                            21 H    0.977
     6   6 C    3.997 --     7 C    1.008     5 C    1.006    23 H    0.977
                            24 H    0.977
     7   6 C    3.997 --     6 C    1.008     8 C    1.007    25 H    0.977
                            26 H    0.975
     8   6 C    3.997 --     9 C    1.007     7 C    1.007    27 H    0.978
                            28 H    0.978
     9   6 C    3.997 --    10 C    1.008     8 C    1.007    30 H    0.978
                            29 H    0.977
    10   6 C    3.998 --    11 C    1.019     9 C    1.008    31 H    0.979
                            32 H    0.979
    11   6 C    3.997 --    10 C    1.019    35 H    0.988    33 H    0.988
                            34 H    0.988
    12   1 H    0.999 --     1 C    0.988
    13   1 H    0.999 --     1 C    0.988
    14   1 H    0.999 --     1 C    0.988
    15   1 H    0.999 --     2 C    0.979
    16   1 H    0.999 --     2 C    0.979
    17   1 H    0.999 --     3 C    0.978
    18   1 H    0.999 --     3 C    0.978
    19   1 H    0.999 --     4 C    0.975
    20   1 H    0.999 --     4 C    0.977
    21   1 H    0.999 --     5 C    0.977
    22   1 H    0.999 --     5 C    0.977
    23   1 H    0.999 --     6 C    0.977
    24   1 H    0.999 --     6 C    0.977
    25   1 H    0.999 --     7 C    0.977
    26   1 H    0.999 --     7 C    0.975
    27   1 H    0.999 --     8 C    0.978
    28   1 H    0.999 --     8 C    0.978
    29   1 H    0.999 --     9 C    0.977
    30   1 H    0.999 --     9 C    0.978
    31   1 H    0.999 --    10 C    0.979
    32   1 H    0.999 --    10 C    0.979
    33   1 H    0.999 --    11 C    0.988
    34   1 H    0.999 --    11 C    0.988
    35   1 H    0.999 --    11 C    0.988
 ---------------------------------------------------------------------------

Topologies differ in total number of bonds
Writing topology from bond orders to xtbtopo.mol

molecular dipole:
                 x           y           z       tot (Debye)
 q only:       -0.003       0.015       0.006
   full:       -0.003       0.011       0.005       0.031
molecular quadrupole (traceless):
                xx          xy          yy          xz          yz          zz
 q only:        0.427       0.113      -0.050      -0.115       0.044      -0.377
  q+dip:       -2.396      -0.034       0.315       0.620      -0.192       2.080
   full:       -1.007       0.026       0.119       0.276      -0.084       0.888

           -------------------------------------------------
          |                Geometry Summary                 |
           -------------------------------------------------

      molecular mass/u    :      156.3086729
   center of mass at/Å    :        0.0000025       0.0009787       0.0001494
  moments of inertia/u·Å² :        0.1922044E+03   0.2128370E+04   0.2264242E+04
rotational constants/cm⁻¹ :        0.8770680E-01   0.7920444E-02   0.7445156E-02

 * 34 selected distances

     #   Z          #   Z                                           value/Å
     1   6 C        2   6 C                                       1.5238087
     2   6 C        3   6 C                                       1.5268264
     3   6 C        4   6 C                                       1.5267454
     4   6 C        5   6 C                                       1.5269896
     5   6 C        6   6 C                                       1.5293817 (max)
     6   6 C        7   6 C                                       1.5269356
     7   6 C        8   6 C                                       1.5267263
     8   6 C        9   6 C                                       1.5266823
     9   6 C       10   6 C                                       1.5264290
    10   6 C       11   6 C                                       1.5240135
     1   6 C       12   1 H                                       1.0878704
     1   6 C       13   1 H                                       1.0875560
     1   6 C       14   1 H                                       1.0879030
     2   6 C       15   1 H                                       1.0924806
     2   6 C       16   1 H                                       1.0925544
     3   6 C       17   1 H                                       1.0926991
     3   6 C       18   1 H                                       1.0927154
     4   6 C       19   1 H                                       1.0911969
     4   6 C       20   1 H                                       1.0927355
     5   6 C       21   1 H                                       1.0929703
     5   6 C       22   1 H                                       1.0926153
     6   6 C       23   1 H                                       1.0926131
     6   6 C       24   1 H                                       1.0929678
     7   6 C       25   1 H                                       1.0926563
     7   6 C       26   1 H                                       1.0911614
     8   6 C       27   1 H                                       1.0926881
     8   6 C       28   1 H                                       1.0927474
     9   6 C       29   1 H                                       1.0927977
     9   6 C       30   1 H                                       1.0926891
    10   6 C       31   1 H                                       1.0923924
    10   6 C       32   1 H                                       1.0924602
    11   6 C       33   1 H                                       1.0879507
    11   6 C       34   1 H                                       1.0874866 (min)
    11   6 C       35   1 H                                       1.0879092

 * 2 distinct bonds (by element types)

   Z      Z             #   av. dist./Å        max./Å        min./Å
   1 H    6 C          24     1.0913257     1.0929703     1.0874866
   6 C    6 C          10     1.5264538     1.5293817     1.5238087

           -------------------------------------------------
          |               Frequency Printout                |
           -------------------------------------------------
 projected vibrational frequencies (cm⁻¹)
eigval :       -0.00     0.00     0.00     0.00     0.00     0.00
eigval :       33.31    34.35    35.28    70.08    86.82   109.09
eigval :      116.49   127.12   130.07   162.91   231.12   233.14
eigval :      238.17   255.27   324.38   380.37   420.06   450.11
eigval :      529.33   765.39   770.81   778.68   793.62   825.38
eigval :      865.76   903.42   936.13   942.43   960.59   973.17
eigval :     1009.38  1027.44  1056.29  1078.89  1093.25  1102.53
eigval :     1103.57  1112.84  1122.88  1130.60  1144.78  1175.89
eigval :     1208.53  1217.71  1244.79  1248.34  1260.20  1268.67
eigval :     1277.68  1283.44  1290.16  1291.27  1297.15  1307.06
eigval :     1324.72  1347.56  1367.33  1375.23  1378.42  1380.76
eigval :     1415.90  1415.94  1491.12  1491.18  1495.86  1497.13
eigval :     1497.71  1499.32  1500.63  1502.50  1504.51  1504.68
eigval :     1504.71  1507.88  1508.00  2953.98  2955.43  2956.94
eigval :     2957.30  2960.67  2965.68  2969.03  2972.80  2973.52
eigval :     2974.54  2975.25  2976.81  2978.74  2980.67  2983.86
eigval :     2984.75  2990.61  2996.95  3030.19  3030.68  3032.75
eigval :     3032.96  3038.17  3038.51
 reduced masses (amu)
   1:  9.90   2:  9.71   3:  9.99   4: 10.03   5:  9.63   6:  9.88   7:  7.88   8:  7.55
   9:  5.66  10:  8.64  11:  8.36  12:  6.45  13:  6.18  14:  8.25  15:  8.08  16:  8.48
  17:  3.68  18:  2.16  19:  6.41  20:  8.83  21:  8.86  22:  9.64  23:  8.81  24:  8.94
  25:  8.66  26:  1.88  27:  1.69  28:  2.11  29:  2.35  30:  2.81  31:  3.22  32:  3.58
  33:  6.37  34:  5.96  35:  3.95  36:  5.22  37:  3.95  38:  3.78  39: 10.43  40:  8.75
  41:  8.05  42:  8.68  43:  7.99  44:  7.49  45:  6.93  46:  8.05  47:  8.42  48:  6.96
  49:  5.92  50:  5.13  51:  3.67  52:  4.01  53:  3.47  54:  3.00  55:  1.70  56:  1.92
  57:  2.57  58:  2.58  59:  2.29  60:  3.08  61:  3.70  62:  4.21  63:  4.70  64:  5.02
  65:  5.71  66:  5.62  67:  3.19  68:  3.18  69:  1.92  70:  1.91  71:  1.95  72:  1.91
  73:  1.88  74:  1.97  75:  1.96  76:  1.90  77:  1.76  78:  1.53  79:  1.56  80:  1.66
  81:  1.65  82:  1.89  83:  1.89  84:  1.91  85:  1.93  86:  1.96  87:  1.92  88:  1.86
  89:  1.66  90:  1.53  91:  1.67  92:  1.52  93:  1.69  94:  1.47  95:  1.57  96:  1.84
  97:  1.62  98:  1.54  99:  1.63 100:  1.96 101:  1.96 102:  1.93 103:  1.90 104:  1.26
 105:  1.29
 IR intensities (km·mol⁻¹)
   1:  0.00   2:  0.00   3:  0.00   4:  0.00   5:  0.00   6:  0.00   7:  0.00   8:  0.00
   9:  0.00  10:  0.01  11:  0.01  12:  0.01  13:  0.00  14:  0.08  15:  0.04  16:  0.05
  17:  0.00  18:  0.00  19:  0.00  20:  0.04  21:  0.02  22:  0.06  23:  0.21  24:  0.24
  25:  0.54  26: 15.41  27:  6.93  28:  2.46  29:  0.20  30:  2.94  31:  2.27  32:  0.48
  33:  1.90  34:  5.27  35:  0.35  36:  0.49  37:  0.67  38:  0.28  39:  0.18  40:  1.11
  41:  2.63  42:  0.10  43:  1.04  44:  1.22  45:  1.52  46:  0.41  47:  1.86  48:  0.34
  49:  0.16  50:  0.27  51:  0.15  52:  0.14  53:  0.22  54:  0.21  55:  0.18  56:  0.12
  57:  0.22  58:  0.31  59:  0.17  60:  0.46  61:  0.05  62:  1.21  63:  1.86  64:  0.17
  65:  0.92  66:  0.12  67:  0.56  68:  1.19  69:  0.08  70:  0.36  71:  0.06  72:  0.08
  73:  0.24  74:  0.32  75:  0.06  76:  0.14  77:  0.18  78:  1.38  79:  3.12  80:  1.04
  81:  1.29  82:  0.54  83:  2.64  84:  9.02  85:  7.78  86:  1.28  87:  1.51  88:  1.31
  89: 25.20  90: 20.22  91: 27.97  92: 23.26  93: 41.63  94:  6.40  95:  3.45  96:185.13
  97: 77.90  98:153.25  99:178.61 100: 59.96 101: 61.19 102: 62.36 103: 63.89 104: 42.88
 105: 22.79
 Raman intensities (amu)
   1:  0.00   2:  0.00   3:  0.00   4:  0.00   5:  0.00   6:  0.00   7:  0.00   8:  0.00
   9:  0.00  10:  0.00  11:  0.00  12:  0.00  13:  0.00  14:  0.00  15:  0.00  16:  0.00
  17:  0.00  18:  0.00  19:  0.00  20:  0.00  21:  0.00  22:  0.00  23:  0.00  24:  0.00
  25:  0.00  26:  0.00  27:  0.00  28:  0.00  29:  0.00  30:  0.00  31:  0.00  32:  0.00
  33:  0.00  34:  0.00  35:  0.00  36:  0.00  37:  0.00  38:  0.00  39:  0.00  40:  0.00
  41:  0.00  42:  0.00  43:  0.00  44:  0.00  45:  0.00  46:  0.00  47:  0.00  48:  0.00
  49:  0.00  50:  0.00  51:  0.00  52:  0.00  53:  0.00  54:  0.00  55:  0.00  56:  0.00
  57:  0.00  58:  0.00  59:  0.00  60:  0.00  61:  0.00  62:  0.00  63:  0.00  64:  0.00
  65:  0.00  66:  0.00  67:  0.00  68:  0.00  69:  0.00  70:  0.00  71:  0.00  72:  0.00
  73:  0.00  74:  0.00  75:  0.00  76:  0.00  77:  0.00  78:  0.00  79:  0.00  80:  0.00
  81:  0.00  82:  0.00  83:  0.00  84:  0.00  85:  0.00  86:  0.00  87:  0.00  88:  0.00
  89:  0.00  90:  0.00  91:  0.00  92:  0.00  93:  0.00  94:  0.00  95:  0.00  96:  0.00
  97:  0.00  98:  0.00  99:  0.00 100:  0.00 101:  0.00 102:  0.00 103:  0.00 104:  0.00
 105:  0.00
 output can be read by thermo (or use thermo option).
 writing <g98.out> molden fake output.
 recommended (thermochemical) frequency scaling factor: 1.0
           -------------------------------------------------
          |             Thermodynamic Functions             |
           -------------------------------------------------

Molecule has no symmetry elements
It seems to be the C1 point group
c1  symmetry found (for desy threshold:  0.10E+00) used in thermo

          ...................................................
          :                      SETUP                      :
          :.................................................:
          :  # frequencies                          99      :
          :  # imaginary freq.                       0      :
          :  linear?                             false      :
          :  only rotor calc.                    false      :
          :  symmetry                               c1      :
          :  rotational number                       1      :
          :  scaling factor                  1.0000000      :
          :  rotor cutoff                   50.0000000 cm⁻¹ :
          :  imag. cutoff                  -20.0000000 cm⁻¹ :
          :.................................................:

    mode    ω/cm⁻¹     T·S(HO)/kcal·mol⁻¹    T·S(FR)/kcal·mol⁻¹   T·S(vib)
   ------------------------------------------------------------------------
       1     33.31    -1.67609 ( 16.46%)    -1.17675 ( 83.54%)    -1.25895
       2     34.35    -1.65806 ( 18.21%)    -1.16771 ( 81.79%)    -1.25700
       3     35.28    -1.64216 ( 19.87%)    -1.15975 ( 80.13%)    -1.25559
       4     70.08    -1.23765 ( 79.42%)    -0.95649 ( 20.58%)    -1.17979
       5     86.82    -1.11222 ( 90.09%)    -0.89303 (  9.91%)    -1.09050
       6    109.09    -0.97944 ( 95.77%)    -0.82541 (  4.23%)    -0.97293
       7    116.49    -0.94149 ( 96.72%)    -0.80597 (  3.28%)    -0.93704
       8    127.12    -0.89121 ( 97.66%)    -0.78010 (  2.34%)    -0.88862
       9    130.07    -0.87805 ( 97.86%)    -0.77330 (  2.14%)    -0.87581
      10    162.91    -0.75005 ( 99.12%)    -0.70661 (  0.88%)    -0.74967
      11    231.12    -0.55760 ( 99.78%)    -0.60301 (  0.22%)    -0.55770
      12    233.14    -0.55297 ( 99.79%)    -0.60044 (  0.21%)    -0.55307
      13    238.17    -0.54160 ( 99.81%)    -0.59412 (  0.19%)    -0.54170
      14    255.27    -0.50503 ( 99.85%)    -0.57357 (  0.15%)    -0.50513
   ------------------------------------------------------------------------

   temp. (K)  partition function   enthalpy   heat capacity  entropy
                                   cal/mol     cal/K/mol   cal/K/mol   J/K/mol
 298.15  VIB  0.181E+07             7746.157     44.327     50.254
         ROT  0.232E+07              888.752      2.981     32.113
         INT  0.421E+13             8634.910     47.308     82.367
         TR   0.189E+28             1481.254      4.968     41.031
         TOT                       10116.1635    52.2762   123.3975   516.2950

       T/K    H(0)-H(T)+PV         H(T)/Eh          T*S/Eh         G(T)/Eh
   ------------------------------------------------------------------------
    298.15    0.161211E-01    0.344310E+00    0.586301E-01    0.285679E+00
   ------------------------------------------------------------------------

         :::::::::::::::::::::::::::::::::::::::::::::::::::::
         ::                  THERMODYNAMIC                  ::
         :::::::::::::::::::::::::::::::::::::::::::::::::::::
         :: total free energy         -35.529279580138 Eh   ::
         ::.................................................::
         :: total energy              -35.814959036635 Eh   ::
         :: zero point energy           0.328188440993 Eh   ::
         :: G(RRHO) w/o ZPVE           -0.042508984496 Eh   ::
         :: G(RRHO) contrib.            0.285679456497 Eh   ::
         :::::::::::::::::::::::::::::::::::::::::::::::::::::
 
 normal mode %tage of torsion character
   1:  0.00   2:  0.00   3:  0.00   4:  0.00   5:  0.00   6:  0.00   7:  0.45   8:  0.44
   9:  0.63  10:  0.40  11:  0.54  12:  0.63  13:  0.67  14:  0.52  15:  0.60  16:  0.53
  17:  0.79  18:  0.88  19:  0.66  20:  0.27  21:  0.20  22:  0.05  23:  0.11  24:  0.07
  25:  0.07  26:  0.52  27:  0.54  28:  0.47  29:  0.49  30:  0.52  31:  0.53  32:  0.53
  33:  0.16  34:  0.10  35:  0.38  36:  0.33  37:  0.33  38:  0.26  39:  0.07  40:  0.08
  41:  0.11  42:  0.04  43:  0.08  44:  0.07  45:  0.12  46:  0.04  47:  0.11  48:  0.44
  49:  0.56  50:  0.46  51:  0.20  52:  0.36  53:  0.16  54:  0.21  55:  0.10  56:  0.16
  57:  0.14  58:  0.17  59:  0.08  60:  0.07  61:  0.07  62:  0.07  63:  0.07  64:  0.06
  65:  0.06  66:  0.06  67:  0.00  68:  0.00  69:  0.63  70:  0.63  71:  0.64  72:  0.65
  73:  0.65  74:  0.63  75:  0.61  76:  0.61  77:  0.61  78:  0.93  79:  0.87  80:  0.88
  81:  0.81  82:  0.34  83:  0.40  84:  0.31  85:  0.32  86:  0.21  87:  0.20  88:  0.06
  89:  0.02  90:  0.01  91:  0.01  92:  0.01  93:  0.01  94:  0.01  95:  0.02  96:  0.01
  97:  0.01  98:  0.01  99:  0.03 100:  0.05 101:  0.08 102:  0.03 103:  0.03 104:  0.00
 105:  0.00
 recommended # of modes for mode following           4

optimized geometry written to: xtbopt.xyz


           -------------------------------------------------
          | TOTAL ENERGY              -35.814959036635 Eh   |
          | TOTAL ENTHALPY            -35.470649462877 Eh   |
          | TOTAL FREE ENERGY         -35.529279580138 Eh   |
          | GRADIENT NORM               0.000518172057 Eh/α |
          | HOMO-LUMO GAP              12.486482830567 eV   |
           -------------------------------------------------

------------------------------------------------------------------------
 * finished run on 2024/04/23 at 12:10:28.404     
------------------------------------------------------------------------
 total:
 * wall-time:     0 d,  0 h,  0 min,  1.172 sec
 *  cpu-time:     0 d,  0 h,  0 min,  4.296 sec
 * ratio c/w:     3.664 speedup
 SCF:
 * wall-time:     0 d,  0 h,  0 min,  0.038 sec
 *  cpu-time:     0 d,  0 h,  0 min,  0.117 sec
 * ratio c/w:     3.081 speedup
 ANC optimizer:
 * wall-time:     0 d,  0 h,  0 min,  0.080 sec
 *  cpu-time:     0 d,  0 h,  0 min,  0.290 sec
 * ratio c/w:     3.617 speedup
 analytical hessian:
 * wall-time:     0 d,  0 h,  0 min,  0.952 sec
 *  cpu-time:     0 d,  0 h,  0 min,  3.629 sec
 * ratio c/w:     3.812 speedup

