35
 energy: -35.812662809070 gnorm: 0.030148466769 xtb: 6.6.1 (8d0f1dd)
C           -5.75234400000000        1.19574700000000        0.13645500000000
C           -4.31883100000000        1.08564500000000       -0.35897600000000
C           -3.58205600000000       -0.12064300000000        0.22548300000000
C           -2.13723300000000       -0.23316000000000       -0.26181300000000
C           -1.40665900000000       -1.44554100000000        0.31644500000000
C            0.02673800000000       -1.60200500000000       -0.20019200000000
C            0.96384500000000       -0.47964500000000        0.24752200000000
C            2.40351300000000       -0.68031400000000       -0.22586700000000
C            3.33804400000000        0.44636500000000        0.21489600000000
C            4.77600900000000        0.25764900000000       -0.27167700000000
C            5.69418500000000        1.39186400000000        0.15565800000000
H           -6.32834700000000        0.30335000000000       -0.11787400000000
H           -6.27147600000000        2.05555900000000       -0.29462400000000
H           -5.78843500000000        1.30176800000000        1.22289600000000
H           -4.30077100000000        1.02483200000000       -1.45580600000000
H           -3.76344900000000        2.00233100000000       -0.11762000000000
H           -4.12739900000000       -1.04019000000000       -0.02180600000000
H           -3.59822000000000       -0.06680300000000        1.32139500000000
H           -1.59682600000000        0.68677000000000       -0.00909100000000
H           -2.12056000000000       -0.28152200000000       -1.35770500000000
H           -1.98669300000000       -2.35070400000000        0.09216900000000
H           -1.39629500000000       -1.37716400000000        1.41136600000000
H            0.01825200000000       -1.65531500000000       -1.29604800000000
H            0.44078900000000       -2.56432500000000        0.12936800000000
H            0.94393500000000       -0.39792100000000        1.34158500000000
H            0.59382500000000        0.48609500000000       -0.11721700000000
H            2.78341200000000       -1.64133600000000        0.14316600000000
H            2.42264700000000       -0.76783700000000       -1.31950200000000
H            2.95095600000000        1.40789600000000       -0.14598300000000
H            3.32643400000000        0.52870600000000        1.30931200000000
H            5.16156300000000       -0.70199900000000        0.09890100000000
H            4.77911200000000        0.16034500000000       -1.36595500000000
H            5.34172900000000        2.35173500000000       -0.22837600000000
H            6.71712700000000        1.25119100000000       -0.20329200000000
H            5.73659100000000        1.47769900000000        1.24369900000000
35
 energy: -35.814609604509 gnorm: 0.013532144203 xtb: 6.6.1 (8d0f1dd)
C           -5.74466288858685        1.18865258523360        0.13821671627240
C           -4.31148401842074        1.08185799819756       -0.35982735571304
C           -3.58046772629288       -0.12519646757163        0.22717067299401
C           -2.13735021313263       -0.22819829440678       -0.26382486418928
C           -1.40384673175248       -1.43608793472198        0.31807033843564
C            0.02696111738137       -1.59208737660961       -0.20232460230417
C            0.96604273848890       -0.47390223620452        0.24926862535699
C            2.40314147481533       -0.68218085916756       -0.22657384837470
C            3.33332134107965        0.44648471435772        0.21604160562738
C            4.76845354231294        0.25275379755950       -0.27244327303783
C            5.68357475093337        1.38931843257567        0.15732385962516
H           -6.31453270704114        0.29722334248610       -0.12345647422140
H           -6.24888730699887        2.05002464625997       -0.29942146478027
H           -5.77250961158332        1.29840492613812        1.22224981711025
H           -4.30805674183208        1.00979266920172       -1.45312414622215
H           -3.76571386536779        1.99633701135135       -0.10200694908346
H           -4.12256742696591       -1.03975978673555       -0.03641389682125
H           -3.58826397585388       -0.05587317991470        1.32027458644657
H           -1.60490654230448        0.68855896647256        0.00545938947500
H           -2.12932595816698       -0.29282121458246       -1.35720057028131
H           -1.97199026719231       -2.34135677821417        0.07585562686214
H           -1.38604979337671       -1.35907099223232        1.41038542856834
H            0.01235154136078       -1.63533945717951       -1.29657789980608
H            0.42956560270126       -2.55036477506746        0.14484532470400
H            0.95122987941563       -0.40978065045174        1.34259618162272
H            0.60249630466984        0.48490229207936       -0.13153275171773
H            2.78029361811235       -1.63614683671814        0.15755297353133
H            2.41601776925200       -0.75401953214321       -1.31952136510038
H            2.95055633253621        1.40118573050231       -0.16079054050287
H            3.32971233095546        0.51340631870394        1.30934279819244
H            5.15693083615496       -0.69636260568585        0.11302796317054
H            4.77060043294200        0.17453686847438       -1.36527512799525
H            5.32871076742022        2.34303487104129       -0.23327765703901
H            6.69909869784329        1.23488530259007       -0.20693081830719
H            5.72466869649348        1.46631150438196        1.24373369750248
35
 energy: -35.814921847302 gnorm: 0.002123450920 xtb: 6.6.1 (8d0f1dd)
C           -5.74045568428134        1.18379488901231        0.13935806567593
C           -4.30578335435994        1.07882905969104       -0.36071468152738
C           -3.57775938884544       -0.12828751599975        0.22776545109126
C           -2.13535444000149       -0.22345152883296       -0.26527123446633
C           -1.40153722221401       -1.42953301379431        0.31897689719135
C            0.02834175210700       -1.58514715494235       -0.20323970822425
C            0.96644985110660       -0.46755415432145        0.25072533360002
C            2.40141257684262       -0.68387459249096       -0.22702806415492
C            3.32925621894114        0.44578112491596        0.21668119016253
C            4.76227973150364        0.24789921330832       -0.27355237815235
C            5.67675484334720        1.38695334947104        0.15834192533402
H           -6.30520676997137        0.29213271514571       -0.12529067336943
H           -6.23700863850499        2.04598975284671       -0.30101961059539
H           -5.76241391515653        1.29303667827306        1.22180717483948
H           -4.30805770646016        1.00149384151009       -1.45091509882629
H           -3.76420329459743        1.99048906652123       -0.09567891300986
H           -4.11694334855654       -1.03989261689465       -0.04282981519305
H           -3.58219092801405       -0.05314759435925        1.31825618114589
H           -1.61021310249492        0.69309176765034        0.00960413944708
H           -2.13198764307436       -0.29619640706194       -1.35603079061705
H           -1.96279655239391       -2.33459024501425        0.06995621541714
H           -1.37968849510519       -1.34652218929337        1.40865129204815
H            0.01034868552159       -1.62147583760725       -1.29555493235410
H            0.42481155660633       -2.54104789545414        0.15051696512359
H            0.95483187234824       -0.41237476300911        1.34237972146931
H            0.60930116467207        0.48870297813913       -0.13574974932159
H            2.77648380661526       -1.63353685333769        0.16357281267060
H            2.41146383667969       -0.74923195368669       -1.31822524023335
H            2.94879704754157        1.39613190267923       -0.16688403771587
H            3.32876280339058        0.50638662990781        1.30805973109568
H            5.15071198238562       -0.69561050976365        0.11792737103015
H            4.76328757100377        0.17839155814046       -1.36428218502847
H            5.31879688028073        2.33647404159065       -0.23474724817877
H            6.68842652143734        1.22557896313315       -0.20812240861631
H            5.71419378170067        1.45944029392755        1.24344830224256
35
 energy: -35.814941265527 gnorm: 0.000848375651 xtb: 6.6.1 (8d0f1dd)
C           -5.73944275570009        1.18210838940380        0.13965452275222
C           -4.30418185084432        1.07794030988999       -0.36112542956316
C           -3.57653548216337       -0.12911462912483        0.22751180136263
C           -2.13423654473364       -0.22191645541281       -0.26605157196236
C           -1.40072143714906       -1.42720402548188        0.31957767814914
C            0.02887064428669       -1.58255222184001       -0.20356115663541
C            0.96629449433504       -0.46531942201017        0.25158350577378
C            2.40039254930735       -0.68411274217294       -0.22684705166477
C            3.32815305479653        0.44542944687119        0.21661734363047
C            4.76045404348016        0.24588903999613       -0.27417396164460
C            5.67501063273824        1.38555150279398        0.15847195687887
H           -6.30276006331324        0.28995879548458       -0.12538848951572
H           -6.23585768384257        2.04429642406304       -0.30013732582656
H           -5.75989586273849        1.29003250683423        1.22201489999649
H           -4.30638224426483        1.00025602061397       -1.45083312735139
H           -3.76270131241244        1.98899662083604       -0.09574796106693
H           -4.11427612711857       -1.04087979553976       -0.04364860127140
H           -3.58078310999434       -0.05468597530270        1.31764494781215
H           -1.61109784702248        0.69543512751382        0.00837368106879
H           -2.13093505218178       -0.29516323876117       -1.35632842643641
H           -1.96165399001828       -2.33203584531762        0.07141209187425
H           -1.37811745170020       -1.34249341103708        1.40870820020273
H            0.01062728721041       -1.61710348897261       -1.29552052765528
H            0.42573365690371       -2.53796402348426        0.14936997256834
H            0.95508294175365       -0.41043223642373        1.34279610422706
H            0.61115431208058        0.49131902315565       -0.13463133219847
H            2.77432459313945       -1.63347337560121        0.16424327046340
H            2.40995897723430       -0.74997847246152       -1.31757410952771
H            2.94767234268660        1.39518511177932       -0.16720623687828
H            3.32734009892133        0.50603394795207        1.30757868362282
H            5.14803281085386       -0.69742413265552        0.11731304797836
H            4.76087056297230        0.17683578247588       -1.36445766408128
H            5.31581370818346        2.33424999158693       -0.23478742161391
H            6.68653554348949        1.22408260188939       -0.20741715564091
H            5.71036856082457        1.45737584845980        1.24345784217305
35
 energy: -35.814954385067 gnorm: 0.001783364249 xtb: 6.6.1 (8d0f1dd)
C           -5.73784855083672        1.17833378986388        0.14027435268303
C           -4.30224352011793        1.07635689893013       -0.36195368822089
C           -3.57423377044692       -0.13021517436080        0.22601817993293
C           -2.13196905933246       -0.21902772864850       -0.26741430190403
C           -1.39888537142046       -1.42246202622490        0.32095806649607
C            0.02963842762331       -1.57729208762607       -0.20399750070795
C            0.96580716291067       -0.46092420294095        0.25318049403692
C            2.39829157982139       -0.68414687908261       -0.22589106667874
C            3.32672677014169        0.44454524347132        0.21612961670268
C            4.75765424473077        0.24209803225128       -0.27544749279488
C            5.67218273937237        1.38206544613461        0.15858921615452
H           -6.29878925603997        0.28514493840836       -0.12571131551126
H           -6.23592317156346        2.04042275556780       -0.29703401924609
H           -5.75581387073613        1.28309668530520        1.22284824663083
H           -4.30369707616963        0.99891686299958       -1.45140576253696
H           -3.76053331043283        1.98696199251035       -0.09661004741252
H           -4.10911585423483       -1.04311704568918       -0.04589973582220
H           -3.57852454167253       -0.05832428501326        1.31610117410700
H           -1.61180460246631        0.70035141468043        0.00525775798880
H           -2.12779304808000       -0.29277896827035       -1.35735797614501
H           -1.96068560506268       -2.32726290246223        0.07673895538413
H           -1.37463233012660       -1.33396669812860        1.40947584253952
H            0.01077275517956       -1.60815055656009       -1.29577031322758
H            0.42868195375274       -2.53262515793758        0.14530319749413
H            0.95482815960006       -0.40578204914827        1.34408916013026
H            0.61380027761078        0.49723240618182       -0.13167285687751
H            2.76991130141856       -1.63377821159953        0.16584789545845
H            2.40692571675614       -0.75226194949510       -1.31620825781315
H            2.94612226832501        1.39396030562687       -0.16776866216915
H            3.32510400405728        0.50632284427492        1.30680460060165
H            5.14325488427792       -0.70200371873404        0.11531685854234
H            4.75699535168068        0.17281902035594       -1.36542746948189
H            5.31118770014744        2.32976908731312       -0.23499351173917
H            6.68431310088113        1.22175488611809       -0.20509744445346
H            5.70340654045196        1.45309003192839        1.24361980785917
35
 energy: -35.814959036602 gnorm: 0.000517964010 xtb: 6.6.1 (8d0f1dd)
C           -5.73813050625197        1.17720838795711        0.14048296697460
C           -4.30314375340311        1.07635839975109       -0.36214489027551
C           -3.57430057105030       -0.12992522853858        0.22510783802915
C           -2.13194170269553       -0.21871720805679       -0.26750556399996
C           -1.39855492780438       -1.42158803089084        0.32151252914397
C            0.02929100744059       -1.57646455166410       -0.20410836592189
C            0.96581972654179       -0.46056049630141        0.25328000197208
C            2.39825919885041       -0.68382964400399       -0.22542749013789
C            3.32728770610749        0.44442717694246        0.21582178012208
C            4.75817697388911        0.24179570651022       -0.27558580299946
C            5.67248418050566        1.38114751778642        0.15862193049491
H           -6.29912325880887        0.28404363210168       -0.12598569054868
H           -6.23730762721593        2.03936631871257       -0.29573233214361
H           -5.75613792913243        1.28128774063368        1.22324604615837
H           -4.30480328178497        0.99951062166509       -1.45191798235622
H           -3.76171421389685        1.98745045023918       -0.09673911915728
H           -4.10896115047853       -1.04311100496904       -0.04732740300037
H           -3.57895706592030       -0.05853341606709        1.31547848878506
H           -1.61153715411672        0.70084369325717        0.00506970875302
H           -2.12703242519093       -0.29285162255878       -1.35771229068218
H           -1.96088777374786       -2.32682704418313        0.07880273841374
H           -1.37369994047069       -1.33214421147599        1.41017681810182
H            0.00992277086442       -1.60667512182163       -1.29613189175280
H            0.42877413887788       -2.53238621573453        0.14403713181598
H            0.95441387324134       -0.40542879161453        1.34448485141207
H            0.61354572778389        0.49781761373322       -0.13148932464317
H            2.76961501061792       -1.63369569814731        0.16676697588616
H            2.40680266479826       -0.75260939988729       -1.31597460046222
H            2.94701502640134        1.39415956344799       -0.16837571256635
H            3.32598046343316        0.50680517727032        1.30672804366163
H            5.14355699218455       -0.70278254802149        0.11502282790391
H            4.75765798005253        0.17238089588883       -1.36583825594503
H            5.31219065151044        2.32916691703003       -0.23518557971953
H            6.68504797361564        1.22110089623057       -0.20431949359561
H            5.70350321525296        1.45238252477891        1.24375311227919
