35
 energy: -35.814959036635 gnorm: 0.000518174549 xtb: 6.6.1 (8d0f1dd)
C           -5.73812385191748        1.17723867790671        0.14050094221134
C           -4.30313938165251        1.07638029888725       -0.36213174806721
C           -3.57430046548900       -0.12990612065940        0.22512054145243
C           -2.13194378162563       -0.21870651211320       -0.26749774038394
C           -1.39856124889217       -1.42158014691336        0.32151989215835
C            0.02928204062606       -1.57646506124002       -0.20410571671555
C            0.96581819915266       -0.46056511126229        0.25327743445302
C            2.39825483139100       -0.68384259469045       -0.22543466813216
C            3.32729078641626        0.44441013197412        0.21580939002356
C            4.75817727785434        0.24177031176723       -0.27560283418140
C            5.67249196575286        1.38111809355226        0.15859971923139
H           -6.29912221121107        0.28407639434541       -0.12596419820921
H           -6.23729798131106        2.03939846100299       -0.29571411919613
H           -5.75612695027395        1.28132001462663        1.22326390259189
H           -4.30480311644357        0.99953062749875       -1.45190470022211
H           -3.76170414525236        1.98746997765863       -0.09672945705224
H           -4.10896677731150       -1.04308957308391       -0.04731123944768
H           -3.57895278043113       -0.05851238077178        1.31549108385204
H           -1.61153346678342        0.70085214008352        0.00507411087585
H           -2.12703869783691       -0.29284285506875       -1.35770435480552
H           -1.96089968185860       -2.32681663942803        0.07881364428203
H           -1.37370199306757       -1.33213455758256        1.41018393823872
H            0.00990983397709       -1.60667743590588       -1.29612912220284
H            0.42876138212735       -2.53238820936252        0.14404005495853
H            0.95441644355449       -0.40543144236354        1.34448222747566
H            0.61354787535011        0.49781417171796       -0.13149233517642
H            2.76960703869045       -1.63370990873248        0.16676015944159
H            2.40679413047163       -0.75262429865002       -1.31598168822718
H            2.94702173839325        1.39414383902418       -0.16838843285560
H            3.32598767834322        0.50679004311642        1.30671554924779
H            5.14355371383263       -0.70280927886161        0.11500610008902
H            4.75765411485413        0.17235360103478       -1.36585516415533
H            5.31220202592583        2.32913869195738       -0.23520818792437
H            6.68505365393373        1.22106553678158       -0.20434496003673
H            5.70351516131704        1.45235483201975        1.24373066840201
