 Entering Gaussian System
 *********************************************
 Gaussian 98:
 frequency output generated by the xtb code
 *********************************************
                         Standard orientation:
 --------------------------------------------------------------------
  Center     Atomic     Atomic              Coordinates (Angstroms)
  Number     Number      Type              X           Y           Z
 --------------------------------------------------------------------
    1          6             0       -3.451617    1.492395    0.819808
    2          6             0       -2.603746    0.678028   -0.150110
    3          6             0       -2.112202   -0.619821    0.486642
    4          6             0       -1.382869   -1.543774   -0.490438
    5          6             0       -0.123911   -0.952356   -1.127094
    6          6             0        0.958402   -0.592833   -0.111805
    7          6             0        2.242253   -0.131757   -0.798344
    8          6             0        3.382822    0.153703    0.179230
    9          6             0        3.116396    1.352466    1.082689
   10          1             0       -3.783091    2.418628    0.355766
   11          1             0       -2.878440    1.741304    1.710460
   12          1             0       -4.330200    0.928971    1.126799
   13          1             0       -1.751014    1.280490   -0.466793
   14          1             0       -3.194385    0.441992   -1.038421
   15          1             0       -1.461082   -0.385118    1.330591
   16          1             0       -2.974305   -1.161602    0.885054
   17          1             0       -2.075043   -1.823049   -1.289230
   18          1             0       -1.108121   -2.459107    0.040365
   19          1             0       -0.384793   -0.066338   -1.708590
   20          1             0        0.280422   -1.689552   -1.826290
   21          1             0        1.175268   -1.466579    0.507910
   22          1             0        0.593690    0.200353    0.540339
   23          1             0        2.035734    0.768081   -1.383145
   24          1             0        2.566845   -0.908657   -1.495674
   25          1             0        3.558601   -0.731629    0.794749
   26          1             0        4.293505    0.341963   -0.394766
   27          1             0        2.283997    1.159062    1.754167
   28          1             0        2.882547    2.232799    0.487524
   29          1             0        3.993626    1.571272    1.687608
 --------------------------------------------------------------------
     1 basis functions        1 primitive gaussians
     1 alpha electrons        1 beta electrons
 
 Harmonic frequencies (cm**-1), IR intensities (km*mol⁻¹),
 Raman scattering activities (A**4/amu), Raman depolarization ratios,
 reduced masses (AMU), force constants (mDyne/A) and normal coordinates:
                      1                      2                      3
                        a                      a                      a 
 Frequencies --    26.9334                41.0674                68.6968
 Red. masses --     8.6624                 8.0830                 5.7479
 Frc consts  --     0.0000                 0.0000                 0.0000
 IR Inten    --     0.0011                 0.0037                 0.0197
 Raman Activ --     0.0000                 0.0000                 0.0000
 Depolar     --     0.0000                 0.0000                 0.0000
 Atom AN      X      Y      Z        X      Y      Z        X      Y      Z
   1   6     0.37   0.07   0.21     0.29   0.18  -0.11    -0.32  -0.15  -0.16
   2   6     0.26   0.08   0.10     0.21   0.01  -0.04     0.41   0.22   0.17
   3   6    -0.00  -0.12  -0.10     0.03  -0.01   0.05    -0.03  -0.00   0.05
   4   6    -0.07  -0.06  -0.20    -0.01  -0.14   0.13    -0.04   0.00   0.04
   5   6    -0.01  -0.09  -0.11    -0.02  -0.22   0.03    -0.03  -0.01   0.05
   6   6    -0.09  -0.09  -0.02    -0.00  -0.09  -0.04     0.02  -0.09   0.04
   7   6    -0.01  -0.17   0.08    -0.16   0.24  -0.11    -0.05   0.01  -0.02
   8   6    -0.16   0.06   0.20    -0.08   0.21  -0.20     0.01   0.01  -0.08
   9   6    -0.30   0.30  -0.16    -0.27  -0.19   0.28     0.05   0.02  -0.07
  10   1     0.16   0.06   0.10     0.12   0.06  -0.05     0.04   0.02  -0.00
  11   1     0.11  -0.06   0.08     0.09   0.04  -0.03    -0.30  -0.17   0.12
  12   1     0.07   0.05   0.02     0.06   0.09  -0.03    -0.18  -0.06  -0.33
  13   1     0.11  -0.01   0.07     0.09  -0.03  -0.01     0.18   0.10   0.29
  14   1     0.07   0.10   0.01     0.06   0.01  -0.01     0.30   0.15  -0.10
  15   1    -0.01  -0.11  -0.00     0.00  -0.01   0.02    -0.05  -0.09   0.07
  16   1    -0.03  -0.01  -0.08    -0.01   0.03   0.01    -0.07   0.03  -0.07
  17   1    -0.02   0.03  -0.07    -0.01  -0.06   0.05    -0.01   0.01   0.01
  18   1    -0.05  -0.04  -0.09    -0.00  -0.02   0.06    -0.02  -0.01   0.01
  19   1     0.02  -0.03  -0.04    -0.01  -0.08  -0.02    -0.01   0.01   0.03
  20   1     0.01  -0.03  -0.02    -0.01  -0.09   0.03    -0.02   0.01   0.00
  21   1    -0.05  -0.02   0.01     0.07  -0.03  -0.04     0.02  -0.04  -0.02
  22   1    -0.03  -0.01  -0.03    -0.03  -0.06   0.02     0.01  -0.05   0.04
  23   1     0.01  -0.08  -0.03    -0.11   0.10   0.03    -0.04   0.01   0.01
  24   1     0.04  -0.08   0.08    -0.04   0.13  -0.09    -0.02   0.02  -0.02
  25   1    -0.08   0.06   0.13     0.08   0.01  -0.16     0.01   0.00  -0.03
  26   1    -0.02  -0.03   0.09    -0.07   0.19  -0.08    -0.01   0.01  -0.04
  27   1    -0.12   0.15  -0.08    -0.02  -0.20   0.12     0.02   0.01  -0.01
  28   1    -0.05   0.04  -0.13    -0.20  -0.02   0.18     0.01   0.01  -0.02
  29   1    -0.12   0.13  -0.02    -0.06  -0.03   0.05     0.02   0.00  -0.03
                      4                      5                      6
                        a                      a                      a 
 Frequencies --    88.9109               106.1480               146.0030
 Red. masses --     7.8663                 7.3445                 5.8269
 Frc consts  --     0.0000                 0.0000                 0.0000
 IR Inten    --     0.0139                 0.0299                 0.0558
 Raman Activ --     0.0000                 0.0000                 0.0000
 Depolar     --     0.0000                 0.0000                 0.0000
 Atom AN      X      Y      Z        X      Y      Z        X      Y      Z
   1   6     0.15  -0.03  -0.05    -0.14  -0.08   0.02    -0.05  -0.02  -0.07
   2   6     0.15  -0.09  -0.00     0.06   0.05   0.08     0.09  -0.01   0.05
   3   6    -0.07  -0.17  -0.02     0.22   0.13   0.11     0.28   0.13   0.18
   4   6     0.01  -0.16   0.03     0.10   0.08   0.07     0.05  -0.01   0.13
   5   6    -0.06  -0.05  -0.01     0.03   0.03  -0.10    -0.08  -0.07  -0.19
   6   6    -0.27   0.55   0.00    -0.02   0.30  -0.15    -0.00  -0.09  -0.27
   7   6    -0.13   0.16   0.01     0.19  -0.26  -0.13    -0.02   0.18  -0.11
   8   6    -0.07  -0.12   0.01     0.01  -0.05   0.02    -0.20  -0.12   0.19
   9   6     0.24  -0.07   0.03    -0.40  -0.17   0.06    -0.06   0.02   0.04
  10   1     0.10   0.01  -0.01    -0.07  -0.04   0.00    -0.07  -0.05  -0.06
  11   1     0.02  -0.05   0.01    -0.07   0.00   0.02    -0.02   0.07  -0.03
  12   1     0.01   0.02  -0.05    -0.02  -0.07  -0.01     0.02  -0.05   0.01
  13   1     0.07  -0.05   0.03    -0.01   0.05   0.03     0.00   0.03  -0.01
  14   1     0.06   0.01  -0.02     0.04  -0.01   0.01     0.04  -0.06   0.02
  15   1    -0.05  -0.08   0.03     0.10   0.07  -0.00     0.13   0.08  -0.00
  16   1    -0.05  -0.04  -0.05     0.09   0.04   0.08     0.11   0.05   0.14
  17   1     0.01  -0.08   0.01    -0.00   0.01   0.05    -0.04  -0.03   0.09
  18   1     0.03  -0.03   0.02     0.05   0.03   0.03     0.05   0.02   0.05
  19   1    -0.06  -0.09  -0.10    -0.01  -0.03  -0.08    -0.05  -0.03  -0.05
  20   1     0.06  -0.06   0.08     0.02  -0.03   0.01    -0.06  -0.03  -0.06
  21   1    -0.11   0.26   0.15    -0.08   0.16   0.08     0.03  -0.05  -0.12
  22   1    -0.12   0.26  -0.14     0.01   0.19  -0.17    -0.02  -0.07  -0.03
  23   1     0.04   0.05  -0.02     0.14  -0.14  -0.16     0.00   0.11   0.05
  24   1    -0.09   0.00   0.02     0.06  -0.18   0.08     0.02   0.12  -0.09
  25   1    -0.09  -0.05   0.00     0.04  -0.01  -0.00    -0.20  -0.04   0.09
  26   1    -0.00  -0.10   0.01     0.01   0.06   0.04     0.02  -0.13   0.14
  27   1     0.04   0.05  -0.01    -0.05  -0.17   0.07    -0.21   0.17  -0.18
  28   1     0.16   0.01   0.01    -0.27  -0.08   0.03     0.30   0.06  -0.03
  29   1     0.08  -0.10   0.03    -0.11   0.08  -0.03    -0.11  -0.19   0.22
                      7                      8                      9
                        a                      a                      a 
 Frequencies --   202.8135               221.0481               241.7646
 Red. masses --     7.6781                 3.8006                 3.5649
 Frc consts  --     0.0000                 0.0000                 0.0000
 IR Inten    --     0.0615                 0.0552                 0.0581
 Raman Activ --     0.0000                 0.0000                 0.0000
 Depolar     --     0.0000                 0.0000                 0.0000
 Atom AN      X      Y      Z        X      Y      Z        X      Y      Z
   1   6     0.13   0.12  -0.21    -0.00   0.04   0.13     0.04  -0.03  -0.02
   2   6     0.06  -0.24   0.05    -0.25   0.02  -0.08    -0.07  -0.09  -0.06
   3   6    -0.12  -0.24   0.17    -0.18   0.04  -0.08     0.24   0.10   0.07
   4   6     0.12  -0.02   0.14     0.07  -0.02   0.14    -0.02  -0.00  -0.01
   5   6    -0.19   0.50   0.02     0.07  -0.08   0.04    -0.07  -0.03  -0.13
   6   6     0.04   0.02  -0.07     0.15   0.03  -0.08    -0.10  -0.06  -0.09
   7   6     0.07  -0.05  -0.06     0.16  -0.01  -0.11    -0.09   0.09   0.06
   8   6    -0.01  -0.08   0.04     0.08   0.04  -0.03    -0.11  -0.09   0.16
   9   6    -0.12  -0.04  -0.05    -0.10  -0.04   0.02     0.15   0.09   0.01
  10   1     0.15   0.04  -0.12     0.33   0.22   0.21     0.26   0.13   0.10
  11   1     0.01   0.03  -0.04    -0.06  -0.37   0.18    -0.06  -0.26   0.11
  12   1    -0.03   0.13  -0.08    -0.21   0.19  -0.23    -0.14   0.12  -0.21
  13   1     0.05  -0.12   0.02    -0.07  -0.01  -0.06    -0.06  -0.01  -0.10
  14   1     0.03  -0.08   0.01    -0.12   0.02   0.00    -0.06  -0.09   0.03
  15   1    -0.08  -0.08   0.09    -0.09   0.05  -0.00     0.15   0.10  -0.06
  16   1    -0.05  -0.09  -0.01    -0.05  -0.01  -0.04     0.12   0.03   0.14
  17   1     0.04  -0.08   0.06     0.05  -0.08   0.04    -0.05   0.01   0.03
  18   1     0.15   0.02   0.02     0.04   0.04   0.11     0.01  -0.00  -0.01
  19   1    -0.13   0.22   0.16     0.02  -0.04  -0.02    -0.03  -0.01  -0.03
  20   1    -0.09   0.27  -0.14     0.01  -0.05   0.03    -0.02  -0.01  -0.04
  21   1    -0.01  -0.06  -0.10     0.05   0.03   0.00    -0.02  -0.04  -0.05
  22   1     0.08  -0.03   0.07     0.04   0.02  -0.04    -0.03  -0.04   0.00
  23   1     0.04  -0.01  -0.02     0.05  -0.01  -0.05    -0.02   0.06   0.07
  24   1     0.02  -0.02  -0.01     0.06  -0.02  -0.01    -0.01   0.07  -0.02
  25   1    -0.03  -0.02   0.03     0.02   0.00  -0.02    -0.10  -0.02   0.07
  26   1     0.02  -0.03   0.04     0.04   0.04   0.02    -0.01  -0.10   0.05
  27   1    -0.03  -0.02  -0.01    -0.17   0.03  -0.16     0.26  -0.03   0.26
  28   1    -0.06  -0.03  -0.03     0.16   0.04   0.01    -0.25  -0.07  -0.02
  29   1    -0.04   0.03  -0.02    -0.12  -0.13   0.18     0.18   0.22  -0.27
                     10                     11                     12
                        a                      a                      a 
 Frequencies --   270.1055               290.8010               321.4139
 Red. masses --     5.9773                 8.5558                 7.5456
 Frc consts  --     0.0000                 0.0000                 0.0000
 IR Inten    --     0.2172                 0.2426                 0.0935
 Raman Activ --     0.0000                 0.0000                 0.0000
 Depolar     --     0.0000                 0.0000                 0.0000
 Atom AN      X      Y      Z        X      Y      Z        X      Y      Z
   1   6     0.03   0.01  -0.14     0.16  -0.31   0.08     0.07  -0.13   0.03
   2   6     0.02  -0.19   0.04     0.10   0.13  -0.31     0.06   0.07  -0.14
   3   6     0.31  -0.01   0.16     0.13   0.21  -0.20    -0.00   0.09  -0.05
   4   6    -0.12   0.10  -0.24     0.17  -0.03   0.12    -0.05  -0.11   0.13
   5   6     0.01   0.10   0.06     0.00   0.21   0.17    -0.28   0.06  -0.17
   6   6    -0.12   0.01   0.25    -0.07   0.02   0.26    -0.17  -0.11  -0.17
   7   6    -0.15  -0.14   0.12    -0.21   0.02   0.07     0.02  -0.27   0.05
   8   6     0.03   0.12  -0.18    -0.11  -0.13  -0.08     0.02   0.28  -0.02
   9   6    -0.02  -0.04   0.00    -0.16  -0.11  -0.16     0.26   0.15   0.26
  10   1     0.15   0.05  -0.05    -0.03  -0.05   0.16    -0.03  -0.03   0.07
  11   1    -0.05  -0.08   0.02     0.09  -0.17   0.02     0.04  -0.06   0.00
  12   1    -0.08   0.09  -0.13     0.09  -0.17   0.01     0.05  -0.08   0.01
  13   1    -0.03  -0.05  -0.06    -0.00   0.08  -0.09     0.01   0.03  -0.02
  14   1    -0.02  -0.14   0.05     0.01   0.04  -0.08     0.02   0.03  -0.04
  15   1     0.20   0.03  -0.05     0.03   0.11  -0.07     0.00   0.05  -0.03
  16   1     0.15  -0.00   0.18     0.03   0.09  -0.02    -0.01   0.06   0.01
  17   1    -0.07   0.21  -0.10     0.07  -0.11   0.05    -0.04  -0.15   0.10
  18   1    -0.11  -0.07  -0.20     0.10   0.05   0.11     0.07   0.03   0.11
  19   1     0.05   0.05   0.03    -0.03   0.10   0.12    -0.14   0.04   0.02
  20   1     0.03   0.05   0.01     0.03   0.13  -0.01    -0.11   0.06  -0.11
  21   1    -0.07   0.01   0.09    -0.01  -0.02   0.03    -0.11  -0.05  -0.05
  22   1    -0.03   0.03   0.04    -0.00  -0.02   0.11    -0.02  -0.02  -0.05
  23   1    -0.07  -0.08  -0.02    -0.08   0.03   0.06     0.02  -0.17  -0.13
  24   1    -0.06  -0.08   0.07    -0.12   0.02  -0.02     0.08  -0.16   0.14
  25   1     0.12   0.03  -0.08    -0.04  -0.04  -0.02     0.13   0.09  -0.03
  26   1    -0.05   0.12  -0.12    -0.03  -0.05  -0.03    -0.05   0.15  -0.08
  27   1    -0.13   0.02  -0.14    -0.07  -0.02  -0.07     0.07   0.05   0.07
  28   1     0.18   0.06   0.04    -0.02  -0.04  -0.07     0.14   0.11   0.15
  29   1    -0.07  -0.16   0.15    -0.07  -0.02  -0.01     0.10  -0.08   0.08
                     13                     14                     15
                        a                      a                      a 
 Frequencies --   414.1892               456.9549               502.9336
 Red. masses --     8.4124                 7.9927                 8.1919
 Frc consts  --     0.0000                 0.0000                 0.0000
 IR Inten    --     0.1096                 0.8408                 0.9331
 Raman Activ --     0.0000                 0.0000                 0.0000
 Depolar     --     0.0000                 0.0000                 0.0000
 Atom AN      X      Y      Z        X      Y      Z        X      Y      Z
   1   6    -0.18   0.29   0.07    -0.02   0.03   0.00     0.13  -0.19  -0.07
   2   6    -0.11   0.08   0.21    -0.02  -0.00   0.02     0.04  -0.14  -0.07
   3   6     0.14  -0.07  -0.14     0.02  -0.02  -0.04    -0.20   0.06   0.26
   4   6     0.43  -0.10  -0.03     0.13   0.06  -0.03     0.14   0.53   0.13
   5   6     0.19  -0.00  -0.27     0.19   0.03   0.19     0.17   0.02  -0.24
   6   6    -0.18  -0.09   0.08     0.17  -0.01   0.08    -0.09  -0.09  -0.04
   7   6    -0.21  -0.08   0.19    -0.12  -0.16  -0.38    -0.11  -0.06   0.09
   8   6    -0.06  -0.00  -0.07    -0.52   0.06  -0.06    -0.06   0.00  -0.03
   9   6     0.01  -0.02  -0.04     0.07   0.06   0.17     0.01  -0.00  -0.01
  10   1     0.00   0.06  -0.07     0.00   0.01  -0.01     0.02  -0.04   0.03
  11   1    -0.09   0.13   0.03    -0.01   0.01   0.00     0.06  -0.09  -0.02
  12   1    -0.09   0.14   0.02    -0.01   0.02   0.00     0.05  -0.07  -0.01
  13   1    -0.04   0.04   0.06    -0.01   0.00   0.00     0.04  -0.09  -0.03
  14   1    -0.04   0.04   0.06    -0.01   0.00   0.01     0.02  -0.08  -0.02
  15   1    -0.00  -0.03  -0.00    -0.01  -0.01   0.00    -0.22   0.00   0.20
  16   1     0.06  -0.09  -0.09     0.01  -0.03  -0.04    -0.10  -0.06  -0.12
  17   1     0.12  -0.23   0.06     0.07   0.05  -0.05    -0.00   0.16   0.07
  18   1     0.25   0.08   0.11    -0.00  -0.00  -0.03     0.07   0.13  -0.01
  19   1     0.04   0.00  -0.07     0.08   0.02   0.06     0.18  -0.05  -0.22
  20   1     0.09   0.02  -0.07     0.06   0.02   0.05    -0.01  -0.16   0.07
  21   1    -0.10  -0.04   0.02     0.10   0.01   0.03    -0.07  -0.04  -0.03
  22   1    -0.11  -0.04   0.01     0.12   0.02   0.03    -0.08  -0.05  -0.01
  23   1    -0.08  -0.03   0.05    -0.05  -0.14  -0.24    -0.05  -0.02   0.03
  24   1    -0.07  -0.03   0.05     0.02  -0.14   0.02    -0.03  -0.01   0.02
  25   1     0.05   0.01  -0.03    -0.28   0.00   0.00     0.02   0.00  -0.01
  26   1    -0.06   0.03  -0.08    -0.07  -0.08   0.07    -0.04   0.02  -0.05
  27   1    -0.00  -0.00  -0.02     0.10   0.09   0.16     0.01   0.01   0.00
  28   1     0.02   0.00  -0.00     0.06   0.09   0.14     0.01   0.00   0.00
  29   1     0.00  -0.03  -0.01     0.14  -0.14  -0.06     0.01  -0.02  -0.01
                     16                     17                     18
                        a                      a                      a 
 Frequencies --   757.7189               779.7718               806.2452
 Red. masses --     2.3462                 2.3846                 2.7531
 Frc consts  --     0.0000                 0.0000                 0.0000
 IR Inten    --    12.1666                12.5825                 3.2263
 Raman Activ --     0.0000                 0.0000                 0.0000
 Depolar     --     0.0000                 0.0000                 0.0000
 Atom AN      X      Y      Z        X      Y      Z        X      Y      Z
   1   6    -0.02   0.03   0.01     0.00  -0.03  -0.02     0.03   0.01   0.02
   2   6     0.06   0.09  -0.03    -0.11  -0.08  -0.02     0.12   0.03   0.07
   3   6     0.12   0.06   0.07    -0.12  -0.03  -0.00     0.04  -0.01  -0.08
   4   6     0.15  -0.08   0.09    -0.02   0.08  -0.01    -0.07   0.01  -0.04
   5   6     0.05  -0.15   0.01     0.06   0.01  -0.00    -0.08   0.11   0.10
   6   6     0.01  -0.10  -0.08     0.10  -0.12  -0.03     0.05   0.10  -0.06
   7   6    -0.01  -0.05   0.01     0.02  -0.16  -0.03     0.03  -0.08  -0.03
   8   6    -0.04  -0.02   0.02    -0.12  -0.07   0.05    -0.15  -0.14   0.13
   9   6    -0.00   0.02   0.01    -0.04   0.04   0.04    -0.06  -0.02   0.05
  10   1    -0.04   0.01   0.02     0.04   0.02   0.01    -0.03  -0.04  -0.05
  11   1    -0.07   0.00   0.04     0.13  -0.03  -0.08    -0.14   0.06   0.09
  12   1     0.01  -0.05  -0.06    -0.01   0.08   0.11     0.02  -0.08  -0.12
  13   1    -0.11   0.08  -0.23     0.09  -0.04   0.28    -0.05  -0.02  -0.23
  14   1    -0.13  -0.14   0.12     0.17   0.15  -0.18    -0.15  -0.10   0.17
  15   1    -0.19  -0.11   0.23     0.10   0.14  -0.14     0.02  -0.12   0.00
  16   1    -0.11   0.02  -0.28     0.09  -0.05   0.21    -0.04   0.04  -0.08
  17   1    -0.01   0.24  -0.02     0.02  -0.05   0.00     0.02  -0.09  -0.01
  18   1    -0.15  -0.16  -0.12     0.05   0.06   0.03     0.04   0.05   0.05
  19   1    -0.12   0.11   0.29     0.07   0.07   0.08     0.02  -0.08  -0.16
  20   1    -0.07   0.17  -0.26    -0.06   0.03  -0.07     0.04  -0.10   0.19
  21   1    -0.06   0.14   0.22    -0.11   0.13   0.26     0.02  -0.05  -0.13
  22   1    -0.09   0.13  -0.26     0.07   0.20  -0.26     0.15  -0.02   0.11
  23   1    -0.06   0.05   0.12    -0.11   0.11   0.26     0.07   0.06   0.09
  24   1     0.02   0.09  -0.10     0.04   0.19  -0.25     0.00   0.05  -0.09
  25   1     0.06  -0.00  -0.01     0.17  -0.02  -0.05     0.32  -0.08  -0.14
  26   1    -0.04   0.05  -0.02    -0.11   0.17  -0.04    -0.19   0.33  -0.09
  27   1     0.00   0.04   0.02     0.01   0.17   0.08    -0.01   0.31   0.11
  28   1     0.02  -0.00  -0.02     0.07  -0.01  -0.06     0.12  -0.10  -0.19
  29   1     0.02  -0.00  -0.02     0.05  -0.03  -0.07     0.07  -0.00  -0.11
                     19                     20                     21
                        a                      a                      a 
 Frequencies --   822.5227               880.1015               893.7114
 Red. masses --     3.4171                 5.0781                 6.1967
 Frc consts  --     0.0000                 0.0000                 0.0000
 IR Inten    --     1.6035                 0.1339                 1.2794
 Raman Activ --     0.0000                 0.0000                 0.0000
 Depolar     --     0.0000                 0.0000                 0.0000
 Atom AN      X      Y      Z        X      Y      Z        X      Y      Z
   1   6    -0.08   0.03  -0.00    -0.09  -0.02   0.02    -0.07   0.22   0.00
   2   6    -0.13   0.01  -0.13    -0.05  -0.05  -0.03     0.01   0.21  -0.23
   3   6     0.04  -0.01   0.09     0.27  -0.01  -0.15    -0.13  -0.17   0.33
   4   6     0.17  -0.11   0.11     0.16   0.04   0.09     0.07  -0.29  -0.00
   5   6     0.08  -0.08   0.01    -0.22   0.09   0.19     0.11   0.15  -0.12
   6   6    -0.02   0.14  -0.13    -0.14   0.02  -0.06     0.01   0.06   0.01
   7   6    -0.05   0.13   0.11    -0.00  -0.22  -0.13     0.04  -0.14   0.02
   8   6    -0.11  -0.07   0.09     0.13  -0.03  -0.02    -0.02   0.00  -0.05
   9   6    -0.01  -0.10  -0.02    -0.00   0.15   0.07    -0.04   0.05  -0.03
  10   1     0.02   0.07   0.08     0.09   0.02  -0.02    -0.23   0.12   0.27
  11   1     0.16  -0.07  -0.09     0.13  -0.02  -0.09    -0.03  -0.09   0.05
  12   1    -0.03   0.10   0.15    -0.08   0.17   0.16     0.10  -0.18  -0.08
  13   1     0.02   0.06   0.21    -0.07   0.13   0.11     0.07  -0.08  -0.12
  14   1     0.15   0.09  -0.18     0.10  -0.03  -0.08    -0.04   0.04  -0.03
  15   1    -0.07   0.10   0.06    -0.08  -0.06   0.09     0.02   0.04   0.02
  16   1     0.03  -0.05   0.00     0.01  -0.05  -0.24    -0.02   0.01   0.20
  17   1     0.01   0.26  -0.04     0.03   0.17  -0.02    -0.00   0.06  -0.03
  18   1    -0.15  -0.18  -0.14    -0.05  -0.07  -0.08     0.04  -0.17  -0.18
  19   1    -0.13  -0.03   0.06    -0.11  -0.14  -0.16     0.00  -0.05  -0.16
  20   1     0.05   0.05  -0.06     0.01  -0.12   0.24     0.15  -0.01   0.08
  21   1     0.12  -0.05  -0.21    -0.16  -0.09  -0.11    -0.11  -0.06  -0.07
  22   1    -0.07  -0.13   0.13     0.14   0.01   0.08     0.11   0.01   0.06
  23   1     0.15  -0.05  -0.15    -0.06   0.07   0.17    -0.04   0.05   0.15
  24   1    -0.01  -0.12   0.20    -0.05   0.10  -0.23    -0.02   0.07  -0.13
  25   1     0.17  -0.07  -0.12     0.01   0.06   0.10    -0.01   0.06   0.08
  26   1    -0.13   0.18  -0.08     0.06  -0.07   0.02     0.01  -0.04  -0.01
  27   1    -0.01   0.16   0.03     0.00  -0.06  -0.00     0.02  -0.05   0.02
  28   1     0.06  -0.11  -0.16    -0.04   0.09   0.11    -0.01   0.09   0.11
  29   1     0.03   0.02  -0.07    -0.02   0.01   0.06     0.02  -0.09  -0.01
                     22                     23                     24
                        a                      a                      a 
 Frequencies --   928.6280               933.6440               975.6161
 Red. masses --     5.5159                 5.5348                 6.8262
 Frc consts  --     0.0000                 0.0000                 0.0000
 IR Inten    --     0.2195                 3.8272                 2.6476
 Raman Activ --     0.0000                 0.0000                 0.0000
 Depolar     --     0.0000                 0.0000                 0.0000
 Atom AN      X      Y      Z        X      Y      Z        X      Y      Z
   1   6     0.12  -0.06   0.05     0.11   0.04   0.04    -0.12   0.22  -0.01
   2   6    -0.00  -0.06   0.08    -0.01   0.00  -0.01     0.03   0.04  -0.13
   3   6    -0.08  -0.00  -0.20    -0.11  -0.09  -0.09     0.17  -0.28  -0.07
   4   6     0.12   0.07   0.16     0.21   0.09   0.10     0.08   0.22  -0.00
   5   6    -0.00   0.00   0.13     0.00  -0.03   0.12    -0.25   0.02   0.26
   6   6     0.04   0.05  -0.24    -0.17  -0.06  -0.08    -0.00  -0.16  -0.12
   7   6     0.08  -0.02   0.31    -0.21  -0.04  -0.24     0.02   0.15   0.12
   8   6    -0.19   0.09  -0.03     0.22  -0.11   0.04    -0.08   0.13   0.06
   9   6    -0.04  -0.09  -0.23     0.10   0.15   0.24     0.07  -0.16  -0.09
  10   1     0.04  -0.11  -0.18    -0.07  -0.05  -0.05    -0.18   0.13   0.25
  11   1    -0.18   0.13   0.10    -0.19   0.09   0.12     0.04  -0.10   0.00
  12   1    -0.00  -0.04  -0.13     0.06  -0.14  -0.17     0.07  -0.10  -0.00
  13   1     0.05  -0.10   0.01     0.10  -0.16  -0.02     0.04  -0.05  -0.05
  14   1    -0.12   0.17   0.05    -0.12   0.20   0.03     0.04  -0.04  -0.04
  15   1     0.03   0.16  -0.13     0.03   0.19  -0.13     0.09  -0.14  -0.03
  16   1     0.07  -0.04   0.08     0.11  -0.11   0.14     0.09  -0.16  -0.04
  17   1     0.10   0.18  -0.08     0.11   0.17  -0.07     0.07  -0.00  -0.02
  18   1    -0.14  -0.06  -0.01    -0.05  -0.06  -0.06     0.13   0.07  -0.03
  19   1    -0.11  -0.05   0.01    -0.04  -0.01   0.05     0.07  -0.01  -0.01
  20   1    -0.05  -0.02   0.03    -0.04  -0.00   0.00    -0.23  -0.14   0.12
  21   1    -0.04  -0.02  -0.09    -0.03  -0.01  -0.02    -0.01   0.05   0.11
  22   1     0.01  -0.01  -0.03    -0.06  -0.02  -0.02    -0.02   0.05  -0.15
  23   1     0.08   0.04   0.13    -0.07  -0.04  -0.10    -0.05  -0.05  -0.08
  24   1     0.07   0.04   0.05    -0.10  -0.04  -0.05     0.19   0.01   0.15
  25   1     0.01   0.14   0.14     0.03  -0.10  -0.08    -0.06  -0.02  -0.05
  26   1    -0.09  -0.05  -0.10     0.05  -0.02   0.01    -0.03   0.01  -0.01
  27   1     0.06  -0.16  -0.01    -0.07   0.04  -0.05    -0.01  -0.05  -0.06
  28   1    -0.01   0.14   0.18    -0.04  -0.10  -0.12    -0.00  -0.09  -0.08
  29   1     0.06  -0.25  -0.08    -0.11   0.30   0.16    -0.01   0.02  -0.01
                     25                     26                     27
                        a                      a                      a 
 Frequencies --  1002.1664              1017.7004              1057.4014
 Red. masses --     4.5093                 4.9896                 5.8956
 Frc consts  --     0.0000                 0.0000                 0.0000
 IR Inten    --     1.4959                 1.6979                 0.8967
 Raman Activ --     0.0000                 0.0000                 0.0000
 Depolar     --     0.0000                 0.0000                 0.0000
 Atom AN      X      Y      Z        X      Y      Z        X      Y      Z
   1   6    -0.05   0.07  -0.08    -0.02  -0.11  -0.00    -0.03   0.04   0.18
   2   6     0.03   0.00   0.04     0.05   0.05   0.04     0.01  -0.06  -0.22
   3   6    -0.01  -0.03   0.02    -0.11   0.07   0.06     0.17  -0.12  -0.05
   4   6    -0.05   0.13  -0.10    -0.04  -0.16   0.02    -0.11  -0.03   0.08
   5   6     0.09  -0.12   0.15     0.16   0.19   0.07    -0.17   0.03  -0.21
   6   6     0.04   0.12  -0.22     0.16  -0.03  -0.27     0.36   0.07   0.14
   7   6    -0.19  -0.11   0.02    -0.18  -0.03   0.16    -0.08  -0.01   0.09
   8   6    -0.01  -0.23   0.02    -0.14   0.04   0.04    -0.11  -0.13  -0.03
   9   6     0.02   0.24   0.04     0.22  -0.02   0.04     0.06   0.11   0.05
  10   1    -0.08   0.08   0.15     0.10  -0.03  -0.08     0.02  -0.04  -0.09
  11   1     0.09  -0.11  -0.05     0.06   0.01  -0.05    -0.13   0.13   0.09
  12   1     0.05  -0.05   0.03    -0.06   0.10   0.08    -0.05   0.05  -0.02
  13   1     0.00  -0.01  -0.03    -0.09   0.13  -0.03     0.04  -0.03   0.01
  14   1     0.06  -0.14   0.01     0.01  -0.09   0.04    -0.04   0.17  -0.08
  15   1     0.09  -0.15  -0.03     0.05  -0.07  -0.02    -0.13   0.13   0.07
  16   1     0.01  -0.01   0.02    -0.12   0.21   0.07     0.03  -0.09  -0.11
  17   1     0.09  -0.12  -0.06     0.10  -0.02  -0.10    -0.29   0.05   0.22
  18   1     0.00   0.12   0.12    -0.02  -0.06  -0.02     0.13  -0.05  -0.13
  19   1     0.04   0.06   0.16     0.04  -0.02  -0.09     0.11   0.03  -0.09
  20   1    -0.06   0.04  -0.08     0.08  -0.02   0.11    -0.13  -0.07  -0.02
  21   1     0.26   0.05  -0.11    -0.10  -0.00  -0.02     0.22   0.09   0.09
  22   1    -0.08  -0.06  -0.00     0.15   0.09  -0.13     0.10   0.05   0.01
  23   1     0.24   0.07   0.06    -0.19  -0.07  -0.00     0.04   0.00   0.01
  24   1    -0.22  -0.06  -0.04     0.17   0.04   0.09    -0.06  -0.03   0.04
  25   1     0.21   0.09   0.15    -0.05  -0.05  -0.07     0.06  -0.01  -0.00
  26   1    -0.14  -0.09  -0.23    -0.14  -0.11  -0.18    -0.12  -0.08  -0.17
  27   1     0.00  -0.15  -0.05    -0.07  -0.18  -0.18    -0.02  -0.09  -0.06
  28   1    -0.07   0.15   0.18    -0.09  -0.12  -0.11    -0.06   0.03   0.04
  29   1    -0.05   0.02   0.11    -0.14   0.26   0.19    -0.07   0.09   0.11
                     28                     29                     30
                        a                      a                      a 
 Frequencies --  1073.8884              1091.0955              1102.9216
 Red. masses --     4.1599                 8.1432                 7.1615
 Frc consts  --     0.0000                 0.0000                 0.0000
 IR Inten    --     0.9681                 0.1756                 0.0724
 Raman Activ --     0.0000                 0.0000                 0.0000
 Depolar     --     0.0000                 0.0000                 0.0000
 Atom AN      X      Y      Z        X      Y      Z        X      Y      Z
   1   6     0.08   0.11  -0.17     0.26  -0.20  -0.30    -0.07   0.09   0.19
   2   6    -0.13  -0.10   0.21    -0.33   0.35   0.21     0.09  -0.22  -0.15
   3   6     0.08   0.13  -0.09     0.05  -0.01   0.20     0.02   0.16   0.06
   4   6    -0.06   0.06  -0.03     0.11  -0.07  -0.19    -0.04  -0.03  -0.15
   5   6    -0.03  -0.12  -0.13    -0.15  -0.04   0.09     0.08  -0.03   0.12
   6   6     0.17   0.15   0.08    -0.05  -0.05   0.04    -0.29  -0.05   0.01
   7   6     0.00  -0.08   0.08     0.01   0.02  -0.09     0.03  -0.01  -0.27
   8   6    -0.10   0.06  -0.03    -0.06   0.03   0.12    -0.12   0.15   0.29
   9   6     0.08  -0.03   0.03     0.07  -0.04  -0.07     0.18  -0.15  -0.16
  10   1    -0.14   0.07   0.17     0.05  -0.06  -0.08    -0.03  -0.00  -0.00
  11   1     0.04  -0.13  -0.01     0.06  -0.07  -0.07    -0.10   0.08   0.09
  12   1     0.14  -0.19  -0.09     0.08  -0.10  -0.11    -0.03   0.02   0.00
  13   1     0.09  -0.18   0.10    -0.11   0.14   0.10     0.10  -0.14   0.01
  14   1     0.03  -0.02   0.01    -0.13   0.22   0.05     0.07  -0.03  -0.08
  15   1    -0.06   0.02   0.04    -0.07   0.03   0.11    -0.13   0.16   0.09
  16   1     0.11  -0.21  -0.15     0.06  -0.13  -0.03     0.00  -0.01  -0.07
  17   1    -0.08  -0.01   0.06    -0.06  -0.05   0.04    -0.09  -0.08   0.06
  18   1    -0.22   0.08   0.20     0.21  -0.02  -0.14     0.04   0.04   0.03
  19   1    -0.31  -0.09   0.00     0.06   0.00   0.00     0.09   0.05   0.08
  20   1     0.18   0.12  -0.08     0.00  -0.03   0.07     0.22   0.11   0.03
  21   1    -0.08  -0.05  -0.06     0.09   0.04   0.04    -0.01  -0.02  -0.02
  22   1     0.24   0.06   0.11     0.01   0.01  -0.00    -0.00  -0.01   0.04
  23   1    -0.16  -0.03   0.06     0.09   0.03  -0.02     0.12   0.06  -0.02
  24   1     0.10   0.05  -0.01     0.07   0.02  -0.01     0.17   0.08  -0.08
  25   1    -0.07  -0.03  -0.05     0.09   0.05   0.07     0.15   0.12   0.14
  26   1    -0.04  -0.04  -0.05    -0.07   0.03  -0.05    -0.10   0.10  -0.02
  27   1    -0.03  -0.04  -0.06     0.00  -0.11  -0.06     0.00  -0.21  -0.14
  28   1    -0.03  -0.07  -0.07    -0.03  -0.00   0.02    -0.05  -0.05  -0.02
  29   1    -0.06   0.11   0.08    -0.02   0.01   0.04    -0.05   0.03   0.06
                     31                     32                     33
                        a                      a                      a 
 Frequencies --  1133.5343              1147.2617              1154.1195
 Red. masses --     7.5736                 8.2201                 7.4383
 Frc consts  --     0.0000                 0.0000                 0.0000
 IR Inten    --     0.6933                 0.3388                 0.9703
 Raman Activ --     0.0000                 0.0000                 0.0000
 Depolar     --     0.0000                 0.0000                 0.0000
 Atom AN      X      Y      Z        X      Y      Z        X      Y      Z
   1   6     0.02   0.02   0.02    -0.03   0.01   0.11     0.08   0.05  -0.01
   2   6    -0.03  -0.06   0.00     0.07  -0.12  -0.05    -0.15  -0.08   0.01
   3   6     0.04   0.11   0.05    -0.14   0.29   0.21     0.19   0.09   0.01
   4   6    -0.01  -0.06  -0.11     0.27  -0.02  -0.42    -0.22  -0.16  -0.04
   5   6     0.01   0.03   0.15    -0.31  -0.17   0.11     0.20   0.17   0.22
   6   6    -0.21  -0.13  -0.02     0.17   0.04  -0.06     0.03  -0.03  -0.39
   7   6     0.37   0.13   0.13    -0.11  -0.01   0.13    -0.25  -0.00   0.14
   8   6    -0.15  -0.27  -0.35     0.10  -0.01  -0.04     0.24   0.01  -0.01
   9   6    -0.06   0.26   0.15    -0.08  -0.00   0.02    -0.14  -0.02   0.02
  10   1    -0.02  -0.00   0.01     0.01  -0.02  -0.03    -0.05  -0.01   0.01
  11   1    -0.03   0.01   0.03    -0.05   0.05   0.04    -0.06   0.01   0.05
  12   1     0.01  -0.03  -0.03    -0.03   0.03   0.01     0.05  -0.08  -0.08
  13   1     0.04  -0.06   0.04     0.07  -0.09   0.00     0.04  -0.07   0.10
  14   1     0.02   0.01  -0.02     0.07  -0.10  -0.03     0.01   0.09  -0.06
  15   1    -0.08   0.08   0.07    -0.11   0.19   0.08    -0.13   0.07   0.13
  16   1     0.01  -0.03  -0.05    -0.04   0.06   0.01     0.03  -0.08  -0.16
  17   1    -0.02  -0.06   0.00     0.16  -0.11  -0.15    -0.16  -0.09   0.10
  18   1     0.04   0.01   0.00     0.21   0.03  -0.12     0.01   0.01   0.04
  19   1     0.08   0.02   0.03    -0.21  -0.10   0.00     0.25   0.08   0.02
  20   1     0.10   0.03   0.07    -0.06  -0.02   0.01     0.12   0.03   0.11
  21   1    -0.17  -0.04   0.02     0.11   0.05   0.02    -0.01   0.02  -0.06
  22   1    -0.08  -0.02  -0.03     0.13   0.04  -0.00     0.00   0.02  -0.14
  23   1     0.24   0.05   0.01    -0.12  -0.05   0.00    -0.16  -0.07  -0.04
  24   1     0.21   0.05   0.07    -0.04  -0.02   0.05    -0.09  -0.04   0.07
  25   1    -0.10  -0.20  -0.26    -0.04  -0.01  -0.00    -0.04   0.01   0.03
  26   1    -0.08  -0.13  -0.18     0.05  -0.04   0.02     0.12  -0.03   0.08
  27   1    -0.03   0.05   0.02     0.01   0.08   0.06     0.02   0.13   0.11
  28   1    -0.04   0.08   0.07     0.03   0.01  -0.00     0.07   0.02   0.00
  29   1    -0.03   0.07   0.05     0.02  -0.04  -0.04     0.07  -0.10  -0.11
                     34                     35                     36
                        a                      a                      a 
 Frequencies --  1161.4599              1193.5139              1225.8642
 Red. masses --     7.1689                 5.6124                 4.6270
 Frc consts  --     0.0000                 0.0000                 0.0000
 IR Inten    --     0.8766                 1.4770                 1.4317
 Raman Activ --     0.0000                 0.0000                 0.0000
 Depolar     --     0.0000                 0.0000                 0.0000
 Atom AN      X      Y      Z        X      Y      Z        X      Y      Z
   1   6    -0.02   0.09  -0.15    -0.01  -0.03   0.04     0.22   0.09   0.12
   2   6     0.02  -0.20   0.34     0.02   0.06  -0.09    -0.31  -0.11  -0.17
   3   6    -0.07   0.27  -0.26    -0.01  -0.08   0.07     0.14   0.10   0.15
   4   6     0.09  -0.23   0.11     0.00   0.08   0.01    -0.04  -0.06  -0.01
   5   6    -0.09   0.21  -0.10    -0.00   0.01  -0.06     0.02   0.14  -0.07
   6   6     0.05  -0.16   0.11     0.02  -0.16   0.06     0.10  -0.04   0.10
   7   6    -0.05   0.13  -0.11    -0.16   0.28  -0.12     0.06   0.02  -0.05
   8   6     0.02  -0.09   0.11     0.17  -0.30   0.21    -0.07  -0.01   0.04
   9   6    -0.01   0.05  -0.06    -0.11   0.18  -0.14     0.06   0.01  -0.03
  10   1    -0.10   0.08   0.16     0.03  -0.02  -0.04    -0.07  -0.07  -0.07
  11   1     0.08  -0.14  -0.04    -0.01   0.03   0.00    -0.19   0.10   0.16
  12   1     0.09  -0.10   0.00    -0.03   0.04   0.01     0.06  -0.12  -0.20
  13   1     0.05  -0.14   0.05    -0.01   0.03  -0.03    -0.05   0.08   0.21
  14   1     0.05  -0.15   0.08    -0.02   0.02  -0.01     0.17  -0.03  -0.20
  15   1    -0.07   0.16  -0.05     0.05  -0.08  -0.01     0.07  -0.27   0.09
  16   1    -0.07   0.17  -0.03     0.02  -0.07   0.01    -0.07   0.10  -0.06
  17   1     0.02   0.12  -0.04     0.01  -0.00   0.00     0.26  -0.07  -0.22
  18   1    -0.01  -0.15  -0.13    -0.10   0.04   0.10    -0.16   0.01   0.12
  19   1     0.15   0.02  -0.15    -0.19  -0.07  -0.04    -0.09  -0.05  -0.10
  20   1    -0.14  -0.11   0.08     0.19   0.07   0.02    -0.17  -0.10   0.01
  21   1     0.05   0.05   0.14    -0.14  -0.02   0.09    -0.06  -0.01   0.05
  22   1    -0.06   0.02  -0.08     0.21   0.11  -0.05    -0.17  -0.04  -0.05
  23   1     0.08   0.00  -0.10    -0.15  -0.09  -0.24     0.02   0.01  -0.01
  24   1    -0.03  -0.04   0.05     0.21  -0.00   0.16    -0.13  -0.05  -0.02
  25   1     0.11   0.01   0.04     0.21  -0.10  -0.02     0.03  -0.01  -0.01
  26   1    -0.04   0.04  -0.03    -0.06   0.03  -0.08    -0.01   0.08   0.04
  27   1     0.02  -0.06  -0.01     0.07  -0.08   0.05    -0.00  -0.06  -0.04
  28   1    -0.01   0.06   0.07    -0.01   0.21   0.21    -0.03   0.01   0.01
  29   1     0.01  -0.05  -0.00     0.02  -0.18  -0.02    -0.01   0.01   0.02
                     37                     38                     39
                        a                      a                      a 
 Frequencies --  1253.7404              1254.9760              1281.2855
 Red. masses --     3.4392                 3.7124                 2.4540
 Frc consts  --     0.0000                 0.0000                 0.0000
 IR Inten    --     0.5445                 0.2643                 0.4310
 Raman Activ --     0.0000                 0.0000                 0.0000
 Depolar     --     0.0000                 0.0000                 0.0000
 Atom AN      X      Y      Z        X      Y      Z        X      Y      Z
   1   6    -0.13  -0.08  -0.03     0.10   0.09  -0.01    -0.11  -0.08  -0.03
   2   6     0.13   0.10   0.01    -0.09  -0.13   0.05    -0.07   0.01  -0.03
   3   6     0.04   0.02   0.07    -0.02  -0.04  -0.11     0.15   0.14   0.09
   4   6    -0.07  -0.08  -0.11     0.01   0.08   0.05     0.00  -0.06   0.04
   5   6     0.06   0.09   0.08     0.04  -0.21   0.04    -0.00  -0.08  -0.06
   6   6     0.16   0.06  -0.03    -0.07   0.25  -0.04    -0.10   0.14   0.06
   7   6     0.10  -0.03   0.02     0.04  -0.09   0.04    -0.02  -0.01  -0.03
   8   6    -0.12  -0.06   0.13    -0.00  -0.09   0.11     0.05  -0.01   0.02
   9   6     0.12   0.11  -0.14     0.03   0.12  -0.13    -0.04  -0.01   0.00
  10   1     0.07   0.02   0.00    -0.07   0.00   0.03     0.04   0.00  -0.01
  11   1     0.09  -0.02  -0.08    -0.06  -0.00   0.06     0.07  -0.03  -0.07
  12   1    -0.05   0.08   0.11     0.06  -0.09  -0.09    -0.05   0.06   0.08
  13   1     0.10  -0.14  -0.12    -0.11   0.14   0.10     0.26  -0.40  -0.02
  14   1    -0.12   0.10   0.08     0.09  -0.08  -0.05    -0.20   0.34   0.02
  15   1    -0.12   0.16   0.08     0.04  -0.03  -0.06     0.08  -0.26   0.07
  16   1     0.12  -0.20  -0.03    -0.13   0.24   0.04    -0.09   0.16  -0.08
  17   1     0.04  -0.09  -0.05    -0.11   0.04   0.11     0.18  -0.02  -0.14
  18   1    -0.08   0.03   0.09     0.26  -0.03  -0.20    -0.04  -0.02   0.02
  19   1    -0.04  -0.03  -0.04     0.13   0.08   0.16     0.25   0.11   0.06
  20   1    -0.17  -0.06  -0.00    -0.10  -0.01  -0.09    -0.27  -0.07  -0.12
  21   1    -0.16  -0.05  -0.03    -0.03  -0.05  -0.16    -0.04  -0.04  -0.08
  22   1    -0.27  -0.10  -0.04     0.05  -0.03   0.14     0.19   0.04   0.13
  23   1    -0.15  -0.04   0.02    -0.29  -0.08   0.03    -0.07  -0.02  -0.01
  24   1    -0.23  -0.07  -0.04     0.15   0.06  -0.02     0.17   0.06   0.01
  25   1    -0.02  -0.19  -0.23    -0.03  -0.22  -0.24     0.01   0.01   0.02
  26   1     0.04   0.28   0.23     0.03   0.16   0.13    -0.03  -0.08  -0.09
  27   1     0.03  -0.20  -0.10     0.04  -0.14  -0.04     0.01   0.03   0.03
  28   1    -0.07   0.09   0.10    -0.04   0.11   0.11     0.02   0.01   0.00
  29   1    -0.02  -0.03   0.06    -0.02  -0.06   0.04    -0.00  -0.01  -0.00
                     40                     41                     42
                        a                      a                      a 
 Frequencies --  1288.4203              1288.9391              1291.6913
 Red. masses --     2.2556                 2.3389                 2.6110
 Frc consts  --     0.0000                 0.0000                 0.0000
 IR Inten    --     0.1000                 0.2164                 0.0508
 Raman Activ --     0.0000                 0.0000                 0.0000
 Depolar     --     0.0000                 0.0000                 0.0000
 Atom AN      X      Y      Z        X      Y      Z        X      Y      Z
   1   6    -0.04  -0.01  -0.02     0.01  -0.02   0.03    -0.04   0.03  -0.07
   2   6    -0.05  -0.07  -0.02     0.01   0.09  -0.02     0.03  -0.15   0.03
   3   6     0.05   0.04  -0.00    -0.03   0.04   0.02     0.10  -0.07  -0.02
   4   6     0.06   0.08   0.05    -0.01  -0.08   0.05    -0.06   0.09  -0.07
   5   6    -0.10   0.05  -0.01    -0.09   0.13  -0.09     0.11   0.05   0.10
   6   6    -0.06  -0.17  -0.08    -0.12   0.10   0.03     0.12   0.05   0.04
   7   6    -0.05  -0.09   0.11     0.02  -0.18  -0.00     0.13   0.01  -0.10
   8   6    -0.04   0.02  -0.03     0.06  -0.04   0.01     0.01  -0.05   0.01
   9   6     0.07   0.05  -0.06    -0.05   0.04   0.00    -0.05  -0.02   0.08
  10   1    -0.01   0.01   0.01     0.03  -0.01  -0.03    -0.04   0.04   0.07
  11   1     0.02  -0.02  -0.02    -0.00   0.02   0.00     0.02  -0.05  -0.02
  12   1    -0.01   0.02   0.03    -0.01   0.01  -0.01     0.01  -0.00   0.04
  13   1     0.11  -0.18   0.02    -0.00   0.01  -0.03    -0.00  -0.01   0.03
  14   1    -0.12   0.22   0.00     0.07  -0.12  -0.01    -0.16   0.26   0.04
  15   1     0.14  -0.26  -0.02    -0.02   0.03   0.01    -0.03   0.01   0.03
  16   1    -0.14   0.24  -0.01     0.13  -0.21   0.01    -0.14   0.28   0.03
  17   1    -0.06   0.08   0.06     0.12   0.01  -0.11    -0.09  -0.02   0.07
  18   1     0.06   0.01  -0.03    -0.16  -0.01   0.10     0.15   0.05  -0.06
  19   1    -0.17  -0.08  -0.07     0.09   0.03  -0.08    -0.34  -0.14  -0.04
  20   1     0.38   0.13   0.10     0.05   0.00   0.05     0.02   0.00   0.03
  21   1     0.36   0.14   0.11     0.53   0.17   0.01    -0.04  -0.02  -0.01
  22   1    -0.01   0.02  -0.09    -0.28  -0.12   0.04    -0.45  -0.16  -0.05
  23   1     0.15   0.04   0.07    -0.29  -0.07   0.06    -0.28  -0.08  -0.04
  24   1    -0.08  -0.02  -0.01     0.42   0.16  -0.04     0.10   0.04  -0.03
  25   1    -0.09  -0.13  -0.17     0.00  -0.06  -0.06     0.10   0.12   0.17
  26   1     0.11   0.18   0.24     0.00  -0.07  -0.04    -0.09  -0.15  -0.20
  27   1     0.01  -0.08  -0.05     0.01   0.01   0.02    -0.02   0.06   0.02
  28   1    -0.04   0.03   0.04     0.01   0.03   0.02     0.02  -0.04  -0.04
  29   1    -0.01   0.00   0.03     0.02  -0.04  -0.03     0.03  -0.01  -0.04
                     43                     44                     45
                        a                      a                      a 
 Frequencies --  1311.4975              1352.7647              1355.4678
 Red. masses --     3.3423                 4.2593                 4.6775
 Frc consts  --     0.0000                 0.0000                 0.0000
 IR Inten    --     1.1803                 1.9177                 1.3441
 Raman Activ --     0.0000                 0.0000                 0.0000
 Depolar     --     0.0000                 0.0000                 0.0000
 Atom AN      X      Y      Z        X      Y      Z        X      Y      Z
   1   6    -0.00  -0.08   0.11     0.00   0.01  -0.01    -0.00   0.01  -0.02
   2   6    -0.16   0.25  -0.02     0.03  -0.06  -0.01     0.04  -0.07  -0.01
   3   6    -0.13   0.22  -0.08    -0.03   0.00   0.02    -0.02   0.03   0.02
   4   6     0.05  -0.03   0.07     0.09   0.00   0.01     0.02   0.01   0.08
   5   6     0.00  -0.02   0.09    -0.21  -0.05  -0.03    -0.27  -0.11  -0.05
   6   6     0.08   0.02  -0.02     0.02  -0.01  -0.03     0.00   0.02  -0.07
   7   6     0.09   0.04  -0.03     0.21  -0.01  -0.04     0.27   0.16   0.07
   8   6    -0.02  -0.01   0.02     0.10   0.25   0.33    -0.17  -0.22  -0.19
   9   6    -0.01  -0.00   0.02    -0.10   0.03  -0.01     0.09  -0.01   0.04
  10   1     0.09  -0.07  -0.13    -0.02   0.01   0.02    -0.02   0.01   0.03
  11   1     0.02   0.04  -0.01    -0.01  -0.00   0.01    -0.01  -0.01   0.01
  12   1    -0.04   0.01  -0.03     0.00   0.00   0.01     0.01   0.00   0.01
  13   1     0.22  -0.34  -0.05    -0.04   0.06   0.01    -0.05   0.07   0.01
  14   1     0.19  -0.30  -0.06    -0.03   0.06   0.00    -0.05   0.08   0.01
  15   1     0.19  -0.34  -0.09     0.03  -0.04  -0.01     0.03  -0.03  -0.01
  16   1     0.11  -0.17  -0.02    -0.01   0.01   0.01     0.01  -0.03  -0.01
  17   1    -0.20   0.07   0.17     0.02   0.04  -0.01     0.13   0.03  -0.10
  18   1     0.19  -0.08  -0.20    -0.10   0.01   0.07    -0.03  -0.01   0.01
  19   1    -0.05  -0.03  -0.00     0.21   0.08   0.01     0.30   0.12   0.04
  20   1     0.06   0.04   0.01     0.21   0.08   0.04     0.29   0.12   0.03
  21   1    -0.12  -0.04  -0.02    -0.01   0.01   0.02    -0.02   0.01   0.00
  22   1    -0.18  -0.06  -0.03    -0.02  -0.02  -0.00     0.02  -0.01   0.01
  23   1    -0.12  -0.04  -0.03    -0.11  -0.03  -0.01    -0.36  -0.12  -0.08
  24   1    -0.08  -0.03  -0.02    -0.35  -0.09  -0.11    -0.19  -0.07   0.02
  25   1     0.04   0.04   0.06    -0.12  -0.20  -0.26     0.16   0.22   0.29
  26   1    -0.04  -0.04  -0.07    -0.19  -0.27  -0.37     0.03   0.15   0.13
  27   1    -0.01   0.01  -0.00     0.01  -0.08   0.01    -0.02   0.03  -0.03
  28   1     0.00  -0.02  -0.02     0.05  -0.03  -0.07    -0.05  -0.02   0.01
  29   1     0.01  -0.00  -0.01     0.07  -0.14  -0.09    -0.04   0.08   0.06
                     46                     47                     48
                        a                      a                      a 
 Frequencies --  1363.5742              1374.4950              1378.1048
 Red. masses --     4.6532                 5.1291                 5.4312
 Frc consts  --     0.0000                 0.0000                 0.0000
 IR Inten    --     3.4902                 0.1632                 2.1671
 Raman Activ --     0.0000                 0.0000                 0.0000
 Depolar     --     0.0000                 0.0000                 0.0000
 Atom AN      X      Y      Z        X      Y      Z        X      Y      Z
   1   6     0.01   0.00   0.01    -0.01   0.06  -0.05     0.00  -0.01  -0.00
   2   6    -0.00  -0.03  -0.03     0.21  -0.31  -0.08    -0.03   0.03   0.02
   3   6    -0.12  -0.02   0.05    -0.22   0.38   0.07     0.04  -0.07  -0.02
   4   6     0.44  -0.09  -0.30    -0.00  -0.09   0.04     0.03   0.05   0.04
   5   6    -0.08   0.07   0.08     0.03   0.01   0.01    -0.31  -0.12  -0.03
   6   6     0.02   0.04  -0.01     0.06   0.03   0.03     0.38   0.13   0.05
   7   6    -0.01   0.00   0.01    -0.09  -0.03  -0.02    -0.30  -0.10  -0.06
   8   6    -0.02  -0.05  -0.05     0.02   0.01  -0.00     0.06   0.01  -0.02
   9   6     0.02  -0.00   0.00    -0.01  -0.00  -0.00    -0.01  -0.00   0.00
  10   1    -0.01  -0.01  -0.00    -0.05   0.04   0.07     0.00  -0.00   0.00
  11   1    -0.01   0.00   0.01    -0.04  -0.03   0.03     0.00   0.00  -0.00
  12   1    -0.00   0.01  -0.00     0.02   0.01   0.05    -0.00   0.00  -0.00
  13   1    -0.02   0.03   0.00    -0.17   0.28   0.06     0.01  -0.03  -0.02
  14   1    -0.01   0.03  -0.01    -0.19   0.26   0.05     0.03  -0.01  -0.01
  15   1     0.08  -0.12  -0.04     0.20  -0.31  -0.07    -0.03   0.03   0.02
  16   1    -0.07   0.13   0.09     0.19  -0.37  -0.08    -0.03   0.08   0.04
  17   1    -0.40   0.09   0.33    -0.04   0.02   0.03     0.10   0.00  -0.07
  18   1    -0.40   0.05   0.31     0.11  -0.06  -0.12    -0.04  -0.00   0.01
  19   1     0.14   0.05  -0.00    -0.00   0.00   0.01     0.25   0.08   0.01
  20   1    -0.16  -0.09   0.05    -0.04  -0.03   0.01     0.27   0.14   0.02
  21   1    -0.02  -0.01  -0.03    -0.07  -0.04  -0.03    -0.33  -0.11  -0.04
  22   1    -0.05  -0.01  -0.00    -0.07  -0.01  -0.02    -0.33  -0.12  -0.05
  23   1    -0.04  -0.01   0.00     0.09   0.03   0.02     0.25   0.10   0.06
  24   1     0.06   0.01   0.02     0.10   0.03   0.01     0.27   0.06   0.05
  25   1     0.02   0.04   0.05    -0.01  -0.01  -0.02    -0.04  -0.02  -0.02
  26   1     0.02   0.04   0.05     0.01   0.00   0.01     0.05   0.04   0.06
  27   1    -0.00   0.01  -0.00     0.00   0.00   0.00    -0.01   0.01  -0.00
  28   1    -0.01   0.00   0.01     0.00   0.01   0.01     0.01   0.02   0.02
  29   1    -0.01   0.02   0.01     0.00   0.00  -0.01     0.02   0.01  -0.03
                     49                     50                     51
                        a                      a                      a 
 Frequencies --  1415.7525              1416.6990              1489.7173
 Red. masses --     3.2169                 3.1630                 1.8725
 Frc consts  --     0.0000                 0.0000                 0.0000
 IR Inten    --     2.1087                 0.6028                 0.2565
 Raman Activ --     0.0000                 0.0000                 0.0000
 Depolar     --     0.0000                 0.0000                 0.0000
 Atom AN      X      Y      Z        X      Y      Z        X      Y      Z
   1   6    -0.01   0.01   0.01     0.24  -0.25  -0.26    -0.01   0.01  -0.00
   2   6     0.00  -0.00   0.00    -0.04   0.06   0.00     0.01   0.01  -0.03
   3   6    -0.00   0.00   0.00     0.00   0.00  -0.02     0.01  -0.00   0.05
   4   6     0.00  -0.00  -0.00     0.00   0.00   0.01     0.08   0.23   0.05
   5   6     0.01  -0.00  -0.00     0.01   0.00   0.01    -0.00   0.02  -0.07
   6   6    -0.00   0.00   0.02    -0.00  -0.00  -0.00     0.00   0.00   0.02
   7   6    -0.04   0.01   0.03    -0.00   0.00   0.00    -0.00  -0.01   0.07
   8   6    -0.04  -0.06  -0.08    -0.00  -0.00  -0.00     0.04  -0.03   0.00
   9   6    -0.06   0.34   0.26    -0.00   0.02   0.01    -0.00   0.00  -0.01
  10   1     0.01  -0.00  -0.02    -0.24   0.11   0.44     0.00  -0.01  -0.01
  11   1     0.02  -0.01  -0.01    -0.40   0.27   0.17     0.01  -0.02   0.00
  12   1     0.01  -0.02  -0.01    -0.15   0.41   0.27     0.01  -0.01   0.01
  13   1    -0.00   0.00  -0.00     0.05  -0.06   0.04     0.04  -0.02   0.08
  14   1    -0.00   0.00  -0.00     0.01  -0.09   0.02    -0.07  -0.04   0.06
  15   1     0.00  -0.00   0.00     0.01  -0.00  -0.01     0.08   0.07  -0.07
  16   1    -0.00  -0.00  -0.00     0.00  -0.00  -0.01    -0.05   0.01  -0.12
  17   1    -0.00  -0.00   0.00    -0.01  -0.00   0.01     0.05  -0.57   0.16
  18   1    -0.00  -0.00  -0.00     0.00  -0.01  -0.02    -0.35  -0.31  -0.36
  19   1    -0.00   0.00   0.01    -0.00  -0.01  -0.01    -0.04   0.09   0.15
  20   1    -0.02  -0.01  -0.00    -0.01   0.00  -0.01     0.04  -0.11   0.14
  21   1    -0.00  -0.02  -0.03     0.00   0.00   0.00     0.03  -0.03  -0.05
  22   1     0.04   0.03  -0.01     0.00  -0.00   0.00    -0.03   0.03  -0.06
  23   1     0.02  -0.01  -0.03    -0.00  -0.00  -0.00     0.03  -0.08  -0.14
  24   1     0.05   0.03   0.00     0.00   0.00  -0.00    -0.01   0.11  -0.13
  25   1     0.08   0.05   0.05     0.00   0.00   0.00    -0.12   0.01   0.05
  26   1     0.07   0.02   0.10     0.00   0.00   0.01    -0.06   0.11  -0.05
  27   1    -0.07  -0.45  -0.20    -0.00  -0.02  -0.01     0.02  -0.01   0.02
  28   1     0.03  -0.28  -0.44     0.00  -0.01  -0.02     0.02  -0.00  -0.01
  29   1     0.25  -0.38  -0.19     0.01  -0.02  -0.01    -0.01   0.00   0.01
                     52                     53                     54
                        a                      a                      a 
 Frequencies --  1490.3817              1492.6054              1496.9609
 Red. masses --     1.9169                 1.9101                 1.8458
 Frc consts  --     0.0000                 0.0000                 0.0000
 IR Inten    --     0.7233                 0.0767                 0.5387
 Raman Activ --     0.0000                 0.0000                 0.0000
 Depolar     --     0.0000                 0.0000                 0.0000
 Atom AN      X      Y      Z        X      Y      Z        X      Y      Z
   1   6    -0.01  -0.00   0.02     0.00  -0.01  -0.00     0.01   0.01  -0.02
   2   6     0.03   0.02  -0.12    -0.01  -0.01   0.03    -0.03  -0.03   0.12
   3   6     0.01   0.02  -0.09    -0.00  -0.00  -0.00    -0.01   0.00   0.03
   4   6    -0.01  -0.02  -0.01    -0.03  -0.09  -0.02     0.00   0.00   0.00
   5   6     0.02   0.01  -0.08    -0.01  -0.00  -0.01    -0.01  -0.01   0.03
   6   6     0.04   0.02  -0.19    -0.00  -0.00   0.10     0.02   0.01   0.02
   7   6    -0.04  -0.02   0.08    -0.00  -0.02   0.15    -0.04  -0.02   0.17
   8   6     0.03  -0.00   0.01     0.16  -0.12   0.00    -0.10   0.09   0.01
   9   6     0.05   0.02  -0.01    -0.00   0.01  -0.01     0.09  -0.00  -0.03
  10   1     0.00   0.01   0.02     0.00   0.00   0.01     0.00  -0.01  -0.02
  11   1     0.04   0.05  -0.04    -0.01   0.01   0.00    -0.05  -0.04   0.04
  12   1    -0.02  -0.01  -0.06    -0.00   0.00   0.01     0.02   0.01   0.07
  13   1     0.09   0.03   0.27    -0.03  -0.01  -0.09    -0.09  -0.02  -0.28
  14   1    -0.19  -0.14   0.16     0.06   0.04  -0.05     0.19   0.15  -0.16
  15   1    -0.13  -0.10   0.12    -0.01  -0.01   0.01     0.04   0.02  -0.04
  16   1     0.08   0.01   0.19     0.01  -0.00   0.01    -0.02  -0.01  -0.06
  17   1    -0.01   0.06  -0.02    -0.01   0.21  -0.06     0.00  -0.01   0.00
  18   1     0.03   0.04   0.04     0.13   0.11   0.13    -0.01  -0.01  -0.01
  19   1    -0.05   0.08   0.14    -0.01   0.01   0.02     0.01  -0.03  -0.05
  20   1     0.01  -0.11   0.12     0.00  -0.01   0.01    -0.01   0.04  -0.05
  21   1    -0.15   0.24   0.38     0.06  -0.10  -0.16    -0.02  -0.01  -0.01
  22   1     0.05  -0.29   0.36    -0.04   0.12  -0.15    -0.01   0.00  -0.01
  23   1     0.08  -0.10  -0.18     0.09  -0.18  -0.29     0.12  -0.20  -0.34
  24   1    -0.00   0.14  -0.16    -0.02   0.23  -0.27    -0.04   0.27  -0.31
  25   1    -0.05   0.00   0.02    -0.44   0.04   0.19     0.30  -0.03  -0.13
  26   1    -0.02   0.04  -0.02    -0.20   0.39  -0.20     0.14  -0.28   0.13
  27   1    -0.02   0.09  -0.01     0.05  -0.04   0.04    -0.06   0.20  -0.03
  28   1    -0.18  -0.06  -0.02     0.04  -0.01  -0.03    -0.28  -0.05   0.04
  29   1    -0.01  -0.14   0.07    -0.02  -0.00   0.04    -0.01  -0.16   0.08
                     55                     56                     57
                        a                      a                      a 
 Frequencies --  1498.7066              1502.1811              1505.4559
 Red. masses --     1.9053                 1.8555                 1.8914
 Frc consts  --     0.0000                 0.0000                 0.0000
 IR Inten    --     0.1807                 0.5365                 0.1050
 Raman Activ --     0.0000                 0.0000                 0.0000
 Depolar     --     0.0000                 0.0000                 0.0000
 Atom AN      X      Y      Z        X      Y      Z        X      Y      Z
   1   6    -0.01  -0.02   0.03    -0.04  -0.05  -0.00     0.06   0.01   0.07
   2   6     0.03   0.05  -0.13    -0.01  -0.06   0.09     0.04  -0.00  -0.07
   3   6     0.01  -0.01  -0.02     0.02   0.08  -0.21     0.01   0.02  -0.10
   4   6    -0.02  -0.06  -0.02     0.02   0.05   0.00     0.02   0.06   0.02
   5   6    -0.02  -0.00  -0.11     0.00   0.00  -0.06    -0.01  -0.03   0.21
   6   6     0.01   0.00   0.14    -0.01  -0.01   0.02    -0.03  -0.01   0.05
   7   6    -0.00  -0.00   0.08     0.01   0.01   0.00     0.00  -0.00   0.05
   8   6    -0.11   0.06   0.00    -0.02   0.00   0.00    -0.01   0.01  -0.00
   9   6    -0.04  -0.03  -0.00    -0.03  -0.02   0.01    -0.01   0.00  -0.02
  10   1     0.00   0.02   0.03     0.11   0.09   0.11    -0.23  -0.09  -0.01
  11   1     0.06   0.07  -0.06    -0.01   0.17  -0.04     0.15  -0.03  -0.08
  12   1    -0.03  -0.01  -0.09     0.02  -0.06  -0.03    -0.15   0.13  -0.21
  13   1     0.12   0.00   0.31    -0.09  -0.01  -0.25     0.04   0.06   0.20
  14   1    -0.22  -0.18   0.19     0.16   0.15  -0.15    -0.15  -0.08   0.12
  15   1    -0.03   0.01   0.02    -0.34  -0.27   0.33    -0.15  -0.10   0.13
  16   1     0.01   0.01   0.02     0.22   0.03   0.49     0.09   0.01   0.21
  17   1    -0.01   0.14  -0.05     0.01  -0.12   0.03     0.00  -0.12   0.04
  18   1     0.09   0.08   0.09    -0.06  -0.06  -0.09    -0.07  -0.06  -0.08
  19   1    -0.06   0.14   0.23    -0.05   0.06   0.12     0.15  -0.23  -0.40
  20   1     0.05  -0.17   0.21     0.03  -0.09   0.11    -0.07   0.31  -0.36
  21   1     0.07  -0.18  -0.28     0.03  -0.03  -0.05     0.04  -0.05  -0.08
  22   1    -0.05   0.20  -0.27     0.04   0.06  -0.05     0.01   0.07  -0.07
  23   1     0.03  -0.08  -0.13    -0.01   0.01   0.01     0.03  -0.06  -0.10
  24   1    -0.03   0.10  -0.12    -0.02  -0.02   0.02    -0.02   0.08  -0.09
  25   1     0.26  -0.02  -0.11     0.03  -0.00  -0.01     0.02   0.00  -0.01
  26   1     0.11  -0.21   0.12     0.01  -0.02   0.02     0.01  -0.02   0.01
  27   1     0.01  -0.05   0.01    -0.00  -0.06  -0.02     0.03  -0.01   0.04
  28   1     0.13   0.06   0.04     0.12   0.04   0.02     0.02  -0.00  -0.01
  29   1    -0.00   0.12  -0.05     0.02   0.10  -0.06    -0.02   0.00   0.03
                     58                     59                     60
                        a                      a                      a 
 Frequencies --  1506.0419              1507.7666              1508.9040
 Red. masses --     1.5696                 1.6421                 1.6958
 Frc consts  --     0.0000                 0.0000                 0.0000
 IR Inten    --     2.0141                 1.7809                 1.1618
 Raman Activ --     0.0000                 0.0000                 0.0000
 Depolar     --     0.0000                 0.0000                 0.0000
 Atom AN      X      Y      Z        X      Y      Z        X      Y      Z
   1   6     0.16   0.10   0.04    -0.02   0.03  -0.05    -0.03   0.13  -0.14
   2   6     0.02   0.01   0.05    -0.01   0.01  -0.00     0.00   0.06  -0.10
   3   6     0.00   0.01  -0.03    -0.00  -0.01   0.03     0.02  -0.00  -0.08
   4   6    -0.01  -0.01  -0.01    -0.00  -0.00   0.00     0.00   0.01  -0.00
   5   6     0.01   0.01  -0.09     0.00  -0.00   0.04    -0.01  -0.01   0.03
   6   6     0.01   0.00  -0.02     0.01   0.01  -0.09    -0.01  -0.01   0.05
   7   6    -0.00   0.00  -0.01    -0.01  -0.01   0.09     0.01   0.00  -0.01
   8   6    -0.01  -0.00  -0.00    -0.07   0.00  -0.01     0.02  -0.00   0.00
   9   6    -0.02  -0.01   0.01    -0.16  -0.05   0.03     0.04   0.01   0.00
  10   1    -0.52  -0.31  -0.24     0.10   0.01  -0.06     0.16  -0.05  -0.24
  11   1     0.07  -0.45   0.09    -0.11  -0.09   0.09    -0.30  -0.36   0.29
  12   1    -0.21   0.34  -0.01     0.10  -0.06   0.18     0.25  -0.10   0.51
  13   1    -0.01  -0.03  -0.14    -0.01   0.00  -0.02     0.07  -0.00   0.16
  14   1     0.07   0.07  -0.05     0.02   0.00  -0.02    -0.10  -0.11   0.09
  15   1    -0.05  -0.02   0.05     0.04   0.02  -0.04    -0.13  -0.08   0.12
  16   1     0.04  -0.02   0.06    -0.02  -0.00  -0.05     0.07   0.02   0.18
  17   1     0.01   0.02  -0.02    -0.00   0.00   0.00     0.00  -0.01   0.00
  18   1     0.02   0.01   0.01    -0.00   0.00   0.01    -0.01  -0.00  -0.01
  19   1    -0.07   0.10   0.17     0.03  -0.06  -0.10     0.02  -0.03  -0.05
  20   1     0.03  -0.13   0.15    -0.02   0.07  -0.09    -0.00   0.04  -0.05
  21   1    -0.01   0.02   0.03    -0.07   0.11   0.18     0.04  -0.06  -0.10
  22   1     0.01  -0.02   0.03     0.02  -0.14   0.18     0.00   0.08  -0.10
  23   1    -0.01   0.01   0.02     0.06  -0.11  -0.18    -0.01   0.02   0.03
  24   1    -0.00  -0.01   0.02    -0.02   0.14  -0.16    -0.00  -0.02   0.03
  25   1     0.01  -0.00  -0.00     0.09   0.00  -0.02    -0.02  -0.00   0.00
  26   1     0.00  -0.00   0.01     0.04  -0.04   0.07    -0.01   0.01  -0.02
  27   1    -0.00  -0.04  -0.01     0.10  -0.32   0.05    -0.04   0.09  -0.03
  28   1     0.07   0.03   0.01     0.55   0.15   0.01    -0.14  -0.03   0.01
  29   1     0.01   0.06  -0.04     0.01   0.38  -0.17     0.01  -0.08   0.02
                     61                     62                     63
                        a                      a                      a 
 Frequencies --  1511.5098              2954.4623              2954.9191
 Red. masses --     1.5612                 1.9444                 1.8204
 Frc consts  --     0.0000                 0.0000                 0.0000
 IR Inten    --     2.3161                14.1670                14.0391
 Raman Activ --     0.0000                 0.0000                 0.0000
 Depolar     --     0.0000                 0.0000                 0.0000
 Atom AN      X      Y      Z        X      Y      Z        X      Y      Z
   1   6    -0.00   0.01  -0.01     0.00   0.00  -0.00     0.00   0.00  -0.00
   2   6    -0.00  -0.00   0.01    -0.00  -0.00  -0.01     0.03   0.02   0.00
   3   6     0.00   0.00  -0.01    -0.05  -0.03  -0.02    -0.09  -0.05  -0.00
   4   6     0.00  -0.00  -0.00     0.12  -0.09   0.17     0.05   0.03   0.05
   5   6    -0.01   0.01  -0.01    -0.05   0.12   0.03     0.08  -0.17  -0.08
   6   6     0.02  -0.00  -0.00    -0.01   0.02  -0.02    -0.03   0.10  -0.03
   7   6     0.00  -0.00  -0.01     0.03  -0.09  -0.02     0.02  -0.07   0.01
   8   6    -0.04   0.03  -0.05    -0.00   0.01  -0.01    -0.00   0.00  -0.00
   9   6    -0.06   0.11  -0.17    -0.00   0.00  -0.00    -0.00   0.00  -0.00
  10   1     0.01  -0.00  -0.01     0.00  -0.00   0.00     0.00  -0.00   0.00
  11   1    -0.02  -0.02   0.02    -0.00  -0.00  -0.00     0.00   0.00   0.00
  12   1     0.02  -0.00   0.04    -0.00  -0.00   0.00     0.00  -0.00  -0.00
  13   1    -0.01  -0.01  -0.03    -0.01  -0.01   0.00    -0.08  -0.05   0.03
  14   1     0.02   0.01  -0.02     0.01   0.01   0.02    -0.03  -0.01  -0.05
  15   1    -0.01  -0.01   0.02     0.10   0.04   0.13     0.08   0.03   0.12
  16   1     0.01   0.00   0.02     0.09   0.06  -0.05     0.24   0.15  -0.11
  17   1     0.00   0.00  -0.00    -0.31  -0.14  -0.35    -0.21  -0.08  -0.24
  18   1     0.00   0.00   0.00    -0.14   0.48  -0.27     0.03  -0.06   0.05
  19   1    -0.01   0.02   0.03     0.05  -0.19   0.13    -0.05   0.17  -0.14
  20   1     0.02  -0.02   0.04     0.13  -0.24  -0.23    -0.24   0.45   0.42
  21   1    -0.01  -0.00  -0.00     0.02  -0.08   0.06     0.07  -0.27   0.19
  22   1    -0.04  -0.01  -0.01     0.00   0.00  -0.00     0.05  -0.10  -0.10
  23   1     0.00   0.02   0.04    -0.03   0.15  -0.11    -0.04   0.16  -0.11
  24   1     0.00  -0.02   0.03    -0.08   0.19   0.17    -0.04   0.09   0.09
  25   1     0.06   0.02  -0.00     0.01  -0.06   0.04     0.00  -0.02   0.02
  26   1     0.04  -0.06   0.03     0.00   0.00  -0.00     0.01   0.00  -0.01
  27   1     0.43  -0.12   0.50     0.00   0.00  -0.00    -0.00   0.00   0.00
  28   1     0.13  -0.15  -0.29     0.00  -0.00   0.00     0.00  -0.00   0.00
  29   1    -0.30  -0.17   0.49     0.00   0.00   0.00     0.00   0.00   0.00
                     64                     65                     66
                        a                      a                      a 
 Frequencies --  2955.4469              2957.9818              2961.4295
 Red. masses --     1.9050                 1.8727                 1.8959
 Frc consts  --     0.0000                 0.0000                 0.0000
 IR Inten    --    14.6315                24.2951                21.4649
 Raman Activ --     0.0000                 0.0000                 0.0000
 Depolar     --     0.0000                 0.0000                 0.0000
 Atom AN      X      Y      Z        X      Y      Z        X      Y      Z
   1   6    -0.00  -0.00   0.00     0.00  -0.00   0.01     0.00  -0.00   0.00
   2   6    -0.01  -0.01  -0.00    -0.07  -0.04  -0.05    -0.00  -0.00  -0.00
   3   6     0.08   0.04   0.01     0.18   0.10  -0.01     0.00   0.00   0.00
   4   6    -0.07   0.02  -0.09     0.06  -0.06   0.08     0.00   0.01   0.00
   5   6    -0.01   0.01   0.02     0.03  -0.07  -0.04     0.01  -0.01  -0.02
   6   6    -0.02   0.07  -0.02    -0.01   0.04  -0.02     0.01  -0.05   0.03
   7   6     0.07  -0.22  -0.03    -0.02   0.04   0.02     0.00  -0.02   0.06
   8   6    -0.01   0.02  -0.02     0.00  -0.01   0.01     0.13   0.15  -0.18
   9   6    -0.00   0.00  -0.00     0.00  -0.00   0.00    -0.01  -0.01   0.01
  10   1    -0.00   0.00  -0.00    -0.00   0.01  -0.00    -0.00   0.00  -0.00
  11   1    -0.00  -0.00  -0.00    -0.01  -0.01  -0.02    -0.00  -0.00  -0.00
  12   1     0.00   0.00   0.00    -0.00   0.00   0.00    -0.00  -0.00   0.00
  13   1     0.04   0.03  -0.02     0.14   0.10  -0.06     0.00   0.00  -0.00
  14   1     0.01   0.00   0.02     0.15   0.06   0.23     0.01   0.00   0.01
  15   1    -0.09  -0.03  -0.13    -0.12  -0.04  -0.19    -0.00  -0.00  -0.01
  16   1    -0.20  -0.13   0.10    -0.54  -0.34   0.24    -0.01  -0.01   0.00
  17   1     0.22   0.09   0.25    -0.10  -0.05  -0.12    -0.02  -0.01  -0.02
  18   1     0.03  -0.14   0.07    -0.09   0.29  -0.17     0.01  -0.02   0.01
  19   1    -0.01   0.04  -0.02    -0.01   0.03  -0.03     0.01  -0.03   0.02
  20   1     0.05  -0.08  -0.07    -0.12   0.21   0.20    -0.03   0.05   0.04
  21   1     0.05  -0.20   0.14     0.03  -0.13   0.09    -0.04   0.16  -0.11
  22   1     0.03  -0.06  -0.07     0.00  -0.01  -0.01    -0.01   0.01   0.02
  23   1    -0.09   0.38  -0.26     0.01  -0.03   0.03    -0.05   0.21  -0.13
  24   1    -0.17   0.41   0.38     0.05  -0.12  -0.10     0.05  -0.14  -0.11
  25   1     0.02  -0.12   0.09    -0.01   0.04  -0.03     0.10  -0.43   0.29
  26   1     0.03   0.01  -0.02    -0.01  -0.00   0.01    -0.58  -0.11   0.36
  27   1     0.00   0.00  -0.00    -0.00  -0.00   0.00     0.05   0.01  -0.04
  28   1     0.00  -0.00   0.01    -0.00   0.00  -0.00    -0.01   0.04  -0.03
  29   1     0.00   0.00   0.00    -0.00  -0.00  -0.00     0.01   0.00   0.01
                     67                     68                     69
                        a                      a                      a 
 Frequencies --  2967.1977              2970.1218              2975.1940
 Red. masses --     1.6989                 1.7640                 1.5608
 Frc consts  --     0.0000                 0.0000                 0.0000
 IR Inten    --    15.9240                34.4237                96.3712
 Raman Activ --     0.0000                 0.0000                 0.0000
 Depolar     --     0.0000                 0.0000                 0.0000
 Atom AN      X      Y      Z        X      Y      Z        X      Y      Z
   1   6     0.01   0.00   0.00     0.02   0.01   0.01     0.01   0.00   0.00
   2   6    -0.07  -0.04  -0.06    -0.15  -0.08  -0.13    -0.05  -0.02  -0.07
   3   6     0.01   0.01   0.01    -0.05  -0.03   0.04    -0.07  -0.05   0.03
   4   6     0.04   0.06   0.03    -0.00   0.07  -0.01    -0.05  -0.15  -0.04
   5   6     0.02  -0.02  -0.04    -0.02   0.05   0.04     0.02  -0.04  -0.05
   6   6     0.04  -0.15   0.09    -0.02   0.06  -0.04     0.01  -0.03   0.03
   7   6     0.03  -0.07  -0.07    -0.01   0.02   0.04    -0.00  -0.01   0.02
   8   6    -0.05   0.01   0.01     0.02  -0.01   0.00    -0.04   0.02   0.01
   9   6     0.00   0.00  -0.00    -0.00  -0.00  -0.00     0.00   0.00   0.00
  10   1    -0.00   0.01  -0.00     0.00   0.01  -0.00     0.00   0.01  -0.00
  11   1    -0.02  -0.01  -0.03    -0.04  -0.02  -0.06    -0.02  -0.01  -0.03
  12   1    -0.02  -0.01   0.01    -0.04  -0.03   0.02    -0.02  -0.02   0.01
  13   1     0.08   0.06  -0.04     0.16   0.11  -0.08    -0.01  -0.01  -0.01
  14   1     0.17   0.07   0.26     0.38   0.15   0.57     0.17   0.07   0.25
  15   1    -0.03  -0.01  -0.04    -0.08  -0.03  -0.08    -0.03  -0.01  -0.02
  16   1    -0.02  -0.01   0.01     0.23   0.14  -0.09     0.27   0.17  -0.12
  17   1    -0.19  -0.06  -0.22    -0.08  -0.02  -0.09     0.35   0.11   0.41
  18   1     0.06  -0.16   0.11     0.08  -0.23   0.14    -0.15   0.43  -0.28
  19   1     0.02  -0.05   0.03    -0.00   0.01   0.00     0.01  -0.04   0.02
  20   1    -0.07   0.14   0.12     0.09  -0.16  -0.15    -0.09   0.17   0.16
  21   1    -0.13   0.53  -0.37     0.06  -0.25   0.17    -0.03   0.12  -0.08
  22   1    -0.01   0.00   0.03    -0.01   0.02   0.00     0.01  -0.03  -0.02
  23   1     0.01  -0.06   0.02    -0.02   0.06  -0.03    -0.02   0.08  -0.05
  24   1    -0.12   0.29   0.24     0.05  -0.13  -0.11     0.01  -0.03  -0.03
  25   1     0.01  -0.08   0.06    -0.01   0.06  -0.04     0.01  -0.11   0.08
  26   1     0.16   0.04  -0.11    -0.06  -0.02   0.04     0.14   0.04  -0.09
  27   1    -0.01  -0.00   0.01     0.00   0.00  -0.00    -0.01  -0.00   0.01
  28   1     0.00  -0.01   0.00    -0.00  -0.00   0.00    -0.00   0.00  -0.00
  29   1    -0.01  -0.00  -0.01     0.01   0.00   0.00    -0.01  -0.00  -0.01
                     70                     71                     72
                        a                      a                      a 
 Frequencies --  2976.1567              2980.2230              2987.8723
 Red. masses --     1.5965                 1.5570                 1.6304
 Frc consts  --     0.0000                 0.0000                 0.0000
 IR Inten    --    42.7606                71.4080                33.5749
 Raman Activ --     0.0000                 0.0000                 0.0000
 Depolar     --     0.0000                 0.0000                 0.0000
 Atom AN      X      Y      Z        X      Y      Z        X      Y      Z
   1   6     0.00  -0.00   0.00    -0.00  -0.00  -0.00     0.01   0.02  -0.01
   2   6    -0.01  -0.00  -0.03     0.01   0.00   0.00    -0.11  -0.09   0.09
   3   6    -0.01  -0.01   0.00     0.01   0.01  -0.00    -0.03  -0.02  -0.01
   4   6    -0.01  -0.03   0.00     0.01   0.02   0.01    -0.02   0.01  -0.03
   5   6     0.01  -0.05   0.04    -0.00  -0.01   0.04    -0.02   0.09  -0.11
   6   6    -0.01   0.05  -0.01    -0.01   0.03  -0.03    -0.02   0.05  -0.01
   7   6     0.00   0.07  -0.17    -0.03   0.08  -0.01    -0.00   0.03  -0.03
   8   6     0.07   0.04  -0.07    -0.13   0.14  -0.04     0.00   0.02  -0.02
   9   6    -0.01  -0.01   0.01     0.02  -0.01   0.02     0.00  -0.01   0.01
  10   1    -0.00   0.01  -0.00    -0.00  -0.00   0.00     0.02  -0.04   0.02
  11   1    -0.01  -0.00  -0.01     0.00   0.00   0.00    -0.00   0.00  -0.01
  12   1    -0.00  -0.00   0.00     0.01   0.01  -0.00    -0.07  -0.05   0.03
  13   1    -0.03  -0.02   0.00    -0.01  -0.01   0.00     0.53   0.37  -0.18
  14   1     0.06   0.03   0.09    -0.01  -0.01  -0.02    -0.13  -0.06  -0.16
  15   1    -0.00  -0.00   0.00    -0.00   0.00  -0.00     0.05   0.02   0.07
  16   1     0.05   0.03  -0.02    -0.03  -0.02   0.01     0.06   0.04  -0.03
  17   1     0.06   0.02   0.07    -0.05  -0.02  -0.06     0.05   0.02   0.05
  18   1    -0.04   0.10  -0.06     0.02  -0.06   0.04     0.02  -0.06   0.03
  19   1    -0.06   0.22  -0.13    -0.03   0.11  -0.06     0.14  -0.46   0.28
  20   1     0.02  -0.04  -0.02     0.05  -0.09  -0.07    -0.07   0.15   0.10
  21   1     0.03  -0.12   0.09     0.04  -0.15   0.10     0.03  -0.12   0.08
  22   1     0.03  -0.07  -0.06    -0.01   0.03   0.02     0.03  -0.07  -0.06
  23   1     0.14  -0.57   0.34     0.04  -0.16   0.10     0.03  -0.15   0.09
  24   1    -0.14   0.34   0.26     0.04  -0.10  -0.10    -0.02   0.05   0.04
  25   1     0.02  -0.06   0.04     0.09  -0.60   0.43     0.01  -0.06   0.04
  26   1    -0.30  -0.06   0.19     0.39   0.11  -0.27    -0.02  -0.00   0.01
  27   1     0.03   0.01  -0.02    -0.02  -0.01   0.02     0.00  -0.00   0.00
  28   1    -0.01   0.03  -0.02    -0.02   0.08  -0.05    -0.01   0.02  -0.02
  29   1     0.01  -0.00   0.01    -0.05  -0.01  -0.04    -0.01  -0.00  -0.00
                     73                     74                     75
                        a                      a                      a 
 Frequencies --  2988.5391              2995.0714              3005.4937
 Red. masses --     1.6527                 1.6328                 1.6817
 Frc consts  --     0.0000                 0.0000                 0.0000
 IR Inten    --    25.5399               128.0564                69.2192
 Raman Activ --     0.0000                 0.0000                 0.0000
 Depolar     --     0.0000                 0.0000                 0.0000
 Atom AN      X      Y      Z        X      Y      Z        X      Y      Z
   1   6    -0.02  -0.00  -0.02     0.01   0.03  -0.02    -0.01   0.00  -0.01
   2   6     0.07   0.04   0.02    -0.08  -0.07   0.09     0.01   0.00   0.01
   3   6     0.09   0.02   0.19    -0.00  -0.01   0.06     0.03   0.01   0.04
   4   6     0.02   0.01   0.03     0.02  -0.03   0.04     0.01   0.00   0.01
   5   6    -0.01   0.04  -0.05     0.03  -0.11   0.10    -0.01   0.02   0.03
   6   6     0.01  -0.01  -0.04     0.02  -0.06   0.01    -0.07   0.15   0.16
   7   6     0.00   0.00  -0.02     0.00  -0.02   0.02    -0.01   0.03   0.03
   8   6     0.00   0.00  -0.01     0.00  -0.01   0.01    -0.00  -0.00   0.00
   9   6    -0.00  -0.00   0.00    -0.01   0.01  -0.01     0.03   0.01  -0.01
  10   1     0.00  -0.02   0.01     0.03  -0.07   0.03     0.00  -0.02   0.01
  11   1     0.05   0.02   0.07     0.02   0.01   0.02     0.02   0.01   0.03
  12   1     0.01   0.01  -0.01    -0.09  -0.06   0.03     0.01   0.00  -0.00
  13   1    -0.15  -0.11   0.06     0.45   0.31  -0.15    -0.01  -0.01   0.01
  14   1    -0.08  -0.03  -0.12    -0.15  -0.06  -0.18    -0.02  -0.01  -0.03
  15   1    -0.51  -0.19  -0.62    -0.14  -0.05  -0.17    -0.12  -0.04  -0.14
  16   1     0.20   0.12  -0.05     0.14   0.09  -0.05     0.02   0.01  -0.00
  17   1    -0.08  -0.03  -0.09    -0.04  -0.02  -0.05    -0.04  -0.01  -0.04
  18   1    -0.00   0.02  -0.01    -0.04   0.13  -0.07    -0.00   0.01  -0.00
  19   1     0.06  -0.20   0.12    -0.15   0.49  -0.30    -0.01   0.02  -0.01
  20   1    -0.03   0.06   0.04     0.05  -0.11  -0.07     0.05  -0.09  -0.08
  21   1     0.02  -0.07   0.04    -0.03   0.11  -0.08    -0.04   0.13  -0.05
  22   1    -0.06   0.12   0.09    -0.04   0.08   0.07     0.31  -0.67  -0.53
  23   1     0.01  -0.06   0.03    -0.02   0.11  -0.07    -0.00   0.01  -0.00
  24   1    -0.02   0.04   0.03     0.01  -0.02  -0.01     0.04  -0.09  -0.08
  25   1     0.00  -0.01   0.01    -0.01   0.04  -0.03    -0.00   0.00  -0.00
  26   1    -0.01  -0.00   0.01     0.01   0.00  -0.00     0.02   0.00  -0.01
  27   1     0.01   0.00  -0.01     0.00   0.00  -0.00    -0.07  -0.02   0.06
  28   1    -0.00   0.01  -0.01     0.01  -0.03   0.02     0.00   0.00  -0.00
  29   1    -0.00  -0.00  -0.00     0.01   0.00   0.01    -0.02  -0.01  -0.02
                     76                     77                     78
                        a                      a                      a 
 Frequencies --  3029.2214              3029.9611              3031.2858
 Red. masses --     1.9564                 1.9129                 1.9354
 Frc consts  --     0.0000                 0.0000                 0.0000
 IR Inten    --    82.2989                34.2581                75.9984
 Raman Activ --     0.0000                 0.0000                 0.0000
 Depolar     --     0.0000                 0.0000                 0.0000
 Atom AN      X      Y      Z        X      Y      Z        X      Y      Z
   1   6    -0.23  -0.11  -0.11    -0.07  -0.00  -0.06     0.01   0.21  -0.19
   2   6    -0.04  -0.02  -0.02    -0.01  -0.01  -0.01     0.02   0.02  -0.03
   3   6    -0.01  -0.01  -0.01    -0.00  -0.00  -0.00     0.00   0.00  -0.01
   4   6    -0.00  -0.00  -0.00    -0.00  -0.00  -0.00    -0.00   0.00  -0.00
   5   6     0.00  -0.00  -0.00     0.00  -0.00   0.00    -0.00   0.00  -0.00
   6   6     0.00  -0.00  -0.00     0.00  -0.01  -0.00    -0.00   0.00  -0.00
   7   6    -0.00   0.00  -0.00     0.00  -0.01   0.00    -0.00   0.00  -0.00
   8   6    -0.00   0.01  -0.01     0.01  -0.03   0.02    -0.00   0.00  -0.00
   9   6    -0.05   0.04  -0.05     0.13  -0.15   0.18    -0.03   0.02  -0.02
  10   1    -0.01  -0.08   0.02     0.03  -0.10   0.04     0.22  -0.59   0.30
  11   1     0.36   0.14   0.57     0.14   0.06   0.21     0.19   0.11   0.25
  12   1     0.46   0.31  -0.18     0.07   0.05  -0.04    -0.44  -0.26   0.12
  13   1     0.08   0.06  -0.03     0.01   0.01  -0.01    -0.10  -0.07   0.03
  14   1     0.05   0.02   0.07     0.02   0.01   0.03     0.04   0.02   0.05
  15   1     0.03   0.01   0.04     0.01   0.00   0.02     0.03   0.01   0.04
  16   1     0.01   0.01  -0.01     0.00   0.00  -0.00    -0.04  -0.03   0.02
  17   1     0.01   0.00   0.01     0.00   0.00   0.00     0.00   0.00   0.00
  18   1    -0.00  -0.00   0.00    -0.00   0.00  -0.00     0.00  -0.01   0.01
  19   1    -0.00   0.00  -0.00    -0.00   0.01  -0.01     0.01  -0.02   0.01
  20   1    -0.00   0.00   0.00    -0.00   0.00   0.00    -0.00   0.00   0.00
  21   1     0.00  -0.00   0.00    -0.00   0.01  -0.01     0.00  -0.01   0.01
  22   1    -0.00   0.01   0.01    -0.01   0.02   0.02    -0.00   0.00   0.00
  23   1     0.00  -0.01   0.01    -0.01   0.04  -0.03     0.00  -0.01   0.01
  24   1    -0.00  -0.00  -0.00    -0.00   0.01   0.01     0.00  -0.00  -0.00
  25   1     0.00  -0.02   0.02    -0.01   0.09  -0.07     0.00  -0.01   0.01
  26   1     0.01   0.00  -0.00    -0.01  -0.01   0.01     0.00   0.00  -0.00
  27   1     0.01   0.01  -0.02     0.03  -0.02   0.02     0.01   0.01  -0.01
  28   1     0.04  -0.18   0.12    -0.16   0.65  -0.44     0.02  -0.08   0.05
  29   1     0.13   0.04   0.08    -0.34  -0.10  -0.21     0.07   0.02   0.04
                     79                     80                     81
                        a                      a                      a 
 Frequencies --  3033.2815              3037.0548              3045.7165
 Red. masses --     1.7383                 1.2550                 1.4981
 Frc consts  --     0.0000                 0.0000                 0.0000
 IR Inten    --    46.2656                31.2764                38.5987
 Raman Activ --     0.0000                 0.0000                 0.0000
 Depolar     --     0.0000                 0.0000                 0.0000
 Atom AN      X      Y      Z        X      Y      Z        X      Y      Z
   1   6    -0.01  -0.00  -0.01    -0.09   0.10   0.07    -0.00  -0.00  -0.00
   2   6    -0.00  -0.00  -0.00    -0.01   0.00   0.01    -0.00  -0.00  -0.00
   3   6    -0.00  -0.00  -0.00    -0.00  -0.00   0.01    -0.00  -0.00  -0.00
   4   6    -0.00  -0.00  -0.00     0.00  -0.00   0.00    -0.00   0.00  -0.00
   5   6     0.00  -0.00  -0.00     0.00  -0.00  -0.00     0.00  -0.00  -0.00
   6   6     0.00  -0.01  -0.01     0.00  -0.00  -0.00     0.01  -0.01  -0.01
   7   6     0.00  -0.00  -0.00     0.00  -0.00  -0.00     0.00  -0.00  -0.00
   8   6     0.02   0.01  -0.01     0.00   0.00  -0.00     0.02   0.00  -0.02
   9   6     0.21   0.15   0.00     0.01   0.00   0.00     0.13   0.00  -0.16
  10   1     0.00  -0.00   0.00     0.19  -0.55   0.30    -0.00  -0.00   0.00
  11   1     0.03   0.01   0.05    -0.29  -0.10  -0.41     0.01   0.00   0.01
  12   1    -0.01  -0.00   0.00     0.42   0.30  -0.14     0.00   0.00  -0.00
  13   1     0.00   0.00  -0.00     0.01   0.01  -0.00     0.00   0.00  -0.00
  14   1     0.01   0.00   0.01    -0.01  -0.00  -0.01     0.00   0.00   0.00
  15   1     0.01   0.00   0.01    -0.01  -0.00  -0.01     0.01   0.00   0.01
  16   1     0.00   0.00  -0.00     0.01   0.01  -0.00    -0.00  -0.00  -0.00
  17   1     0.00   0.00   0.01     0.00  -0.00   0.00     0.00   0.00   0.00
  18   1    -0.00  -0.00  -0.00    -0.00   0.00  -0.00     0.00  -0.00   0.00
  19   1     0.00  -0.00   0.00    -0.00   0.00  -0.00    -0.00   0.00  -0.00
  20   1    -0.00   0.00   0.00    -0.00   0.00   0.00    -0.00   0.01   0.01
  21   1     0.00  -0.01   0.01    -0.00   0.00  -0.00     0.00  -0.01   0.00
  22   1    -0.02   0.04   0.03    -0.00   0.00   0.00    -0.03   0.06   0.05
  23   1     0.00  -0.01   0.00     0.00  -0.00   0.00     0.00  -0.00  -0.00
  24   1    -0.00   0.01   0.01    -0.00   0.00   0.00    -0.01   0.01   0.01
  25   1     0.00  -0.01   0.01    -0.00   0.00  -0.00     0.00  -0.01   0.01
  26   1    -0.06  -0.01   0.04    -0.00  -0.00   0.00    -0.05  -0.01   0.03
  27   1    -0.22  -0.05   0.20    -0.01  -0.00   0.01    -0.70  -0.18   0.55
  28   1     0.13  -0.34   0.25     0.00  -0.01   0.01    -0.01   0.13  -0.11
  29   1    -0.64  -0.13  -0.45    -0.02  -0.00  -0.02     0.26   0.06   0.14
