      -----------------------------------------------------------      
     |                   =====================                   |     
     |                           x T B                           |     
     |                   =====================                   |     
     |                         S. Grimme                         |     
     |          Mulliken Center for Theoretical Chemistry        |     
     |                    University of Bonn                     |     
      -----------------------------------------------------------      

   * xtb version 6.6.1 (8d0f1dd) compiled by 'stahn@M-Bot' on 2023-08-01

   xtb is free software: you can redistribute it and/or modify it under
   the terms of the GNU Lesser General Public License as published by
   the Free Software Foundation, either version 3 of the License, or
   (at your option) any later version.
   
   xtb is distributed in the hope that it will be useful,
   but WITHOUT ANY WARRANTY; without even the implied warranty of
   MERCHANTABILITY or FITNESS FOR A PARTICULAR PURPOSE.  See the
   GNU Lesser General Public License for more details.
   
   Cite this work as:
   * C. Bannwarth, E. Caldeweyher, S. Ehlert, A. Hansen, P. Pracht,
     J. Seibert, S. Spicher, S. Grimme, WIREs Comput. Mol. Sci., 2020, 11,
     e01493. DOI: 10.1002/wcms.1493
   
   for GFN2-xTB:
   * C. Bannwarth, S. Ehlert and S. Grimme., J. Chem. Theory Comput., 2019,
     15, 1652-1671. DOI: 10.1021/acs.jctc.8b01176
   for GFN1-xTB:
   * S. Grimme, C. Bannwarth, P. Shushkov, J. Chem. Theory Comput., 2017,
     13, 1989-2009. DOI: 10.1021/acs.jctc.7b00118
   for GFN0-xTB:
   * P. Pracht, E. Caldeweyher, S. Ehlert, S. Grimme, ChemRxiv, 2019, preprint.
     DOI: 10.26434/chemrxiv.8326202.v1
   for GFN-FF:
   * S. Spicher and S. Grimme, Angew. Chem. Int. Ed., 2020, 59, 15665-15673.
     DOI: 10.1002/anie.202004239
   
   for ALPB and GBSA implicit solvation:
   * S. Ehlert, M. Stahn, S. Spicher, S. Grimme, J. Chem. Theory Comput.,
     2021, 17, 4250-4261. DOI: 10.1021/acs.jctc.1c00471
   
   for DFT-D4:
   * E. Caldeweyher, C. Bannwarth and S. Grimme, J. Chem. Phys., 2017,
     147, 034112. DOI: 10.1063/1.4993215
   * E. Caldeweyher, S. Ehlert, A. Hansen, H. Neugebauer, S. Spicher,
     C. Bannwarth and S. Grimme, J. Chem. Phys., 2019, 150, 154122.
     DOI: 10.1063/1.5090222
   * E. Caldeweyher, J.-M. Mewes, S. Ehlert and S. Grimme, Phys. Chem. Chem. Phys.
     2020, 22, 8499-8512. DOI: 10.1039/D0CP00502A
   
   for sTDA-xTB:
   * S. Grimme and C. Bannwarth, J. Chem. Phys., 2016, 145, 054103.
     DOI: 10.1063/1.4959605
   
   in the mass-spec context:
   * V. Asgeirsson, C. Bauer and S. Grimme, Chem. Sci., 2017, 8, 4879.
     DOI: 10.1039/c7sc00601b
   * J. Koopman and S. Grimme, ACS Omega 2019, 4, 12, 15120-15133.
     DOI: 10.1021/acsomega.9b02011
   
   for metadynamics refer to:
   * S. Grimme, J. Chem. Theory Comput., 2019, 155, 2847-2862
     DOI: 10.1021/acs.jctc.9b00143
   
   for SPH calculations refer to:
   * S. Spicher and S. Grimme, J. Chem. Theory Comput., 2021, 17, 1701-1714
     DOI: 10.1021/acs.jctc.0c01306
   
   with help from (in alphabetical order)
   P. Atkinson, C. Bannwarth, F. Bohle, G. Brandenburg, E. Caldeweyher
   M. Checinski, S. Dohm, S. Ehlert, S. Ehrlich, I. Gerasimov, C. Hölzer
   A. Katbashev, J. Koopman, C. Lavigne, S. Lehtola, F. März, M. Müller,
   F. Musil, H. Neugebauer, J. Pisarek, C. Plett, P. Pracht, F. Pultar,
   J. Seibert, P. Shushkov, S. Spicher, M. Stahn, M. Steiner, T. Strunk,
   J. Stückrath, T. Rose, and J. Unsleber
   
 * started run on 2024/04/20 at 10:58:33.384     

           -------------------------------------------------
          |                Calculation Setup                |
           -------------------------------------------------

          program call               : xtb folded.xyz --gfn 2 --ohess -P 4
          coordinate file            : folded.xyz
          omp threads                :                     4

   ID    Z sym.   atoms
    1    6 C      1-9
    2    1 H      10-29

           -------------------------------------------------
          |                 G F N 2 - x T B                 |
           -------------------------------------------------

        Reference                      10.1021/acs.jctc.8b01176
      * Hamiltonian:
        H0-scaling (s, p, d)           1.850000    2.230000    2.230000
        zeta-weighting                 0.500000
      * Dispersion:
        s8                             2.700000
        a1                             0.520000
        a2                             5.000000
        s9                             5.000000
      * Repulsion:
        kExp                           1.500000    1.000000
        rExp                           1.000000
      * Coulomb:
        alpha                          2.000000
        third order                    shell-resolved
        anisotropic                    true
        a3                             3.000000
        a5                             4.000000
        cn-shift                       1.200000
        cn-exp                         4.000000
        max-rad                        5.000000


          ...................................................
          :                      SETUP                      :
          :.................................................:
          :  # basis functions                  56          :
          :  # atomic orbitals                  56          :
          :  # shells                           38          :
          :  # electrons                        56          :
          :  max. iterations                   250          :
          :  Hamiltonian                  GFN2-xTB          :
          :  restarted?                      false          :
          :  GBSA solvation                  false          :
          :  PC potential                    false          :
          :  electronic temp.          300.0000000     K    :
          :  accuracy                    1.0000000          :
          :  -> integral cutoff          0.2500000E+02      :
          :  -> integral neglect         0.1000000E-07      :
          :  -> SCF convergence          0.1000000E-05 Eh   :
          :  -> wf. convergence          0.1000000E-03 e    :
          :  Broyden damping             0.4000000          :
          ...................................................

 iter      E             dE          RMSdq      gap      omega  full diag
   1    -29.8338051 -0.298338E+02  0.245E+00   12.93       0.0  T
   2    -29.9120206 -0.782155E-01  0.127E+00   12.67       1.0  T
   3    -29.9128985 -0.877842E-03  0.687E-01   12.66       1.0  T
   4    -29.9131292 -0.230699E-03  0.852E-02   12.67       1.0  T
   5    -29.9131388 -0.961700E-05  0.454E-02   12.67       1.0  T
   6    -29.9131403 -0.145190E-05  0.351E-03   12.67       5.3  T
   7    -29.9131403 -0.640389E-07  0.139E-03   12.67      13.4  T
   8    -29.9131403 -0.882158E-08  0.274E-04   12.67      67.9  T
   9    -29.9131403 -0.120245E-09  0.119E-04   12.67     156.7  T

   *** convergence criteria satisfied after 9 iterations ***

         #    Occupation            Energy/Eh            Energy/eV
      -------------------------------------------------------------
         1        2.0000           -0.6215589             -16.9135
       ...           ...                  ...                  ...
        22        2.0000           -0.4379189             -11.9164
        23        2.0000           -0.4298866             -11.6978
        24        2.0000           -0.4246215             -11.5545
        25        2.0000           -0.4207958             -11.4504
        26        2.0000           -0.4153925             -11.3034
        27        2.0000           -0.4138229             -11.2607
        28        2.0000           -0.4084943             -11.1157 (HOMO)
        29                          0.0570926               1.5536 (LUMO)
        30                          0.0735231               2.0007
        31                          0.0943021               2.5661
        32                          0.1004444               2.7332
        33                          0.1143754               3.1123
       ...                                ...                  ...
        56                          0.3116343               8.4800
      -------------------------------------------------------------
                  HL-Gap            0.4655869 Eh           12.6693 eV
             Fermi-level           -0.1757009 Eh           -4.7811 eV

 SCC (total)                   0 d,  0 h,  0 min,  0.017 sec
 SCC setup                      ...        0 min,  0.001 sec (  5.483%)
 Dispersion                     ...        0 min,  0.000 sec (  1.342%)
 classical contributions        ...        0 min,  0.000 sec (  0.170%)
 integral evaluation            ...        0 min,  0.001 sec (  5.572%)
 iterations                     ...        0 min,  0.011 sec ( 64.064%)
 molecular gradient             ...        0 min,  0.003 sec ( 16.487%)
 printout                       ...        0 min,  0.001 sec (  6.721%)

         :::::::::::::::::::::::::::::::::::::::::::::::::::::
         ::                     SUMMARY                     ::
         :::::::::::::::::::::::::::::::::::::::::::::::::::::
         :: total energy             -29.482312115400 Eh    ::
         :: gradient norm              0.027852097045 Eh/a0 ::
         :: HOMO-LUMO gap             12.669264350903 eV    ::
         ::.................................................::
         :: SCC energy               -29.913140330557 Eh    ::
         :: -> isotropic ES            0.004920547510 Eh    ::
         :: -> anisotropic ES          0.010172128057 Eh    ::
         :: -> anisotropic XC          0.017898263805 Eh    ::
         :: -> dispersion             -0.018327050531 Eh    ::
         :: repulsion energy           0.430678890454 Eh    ::
         :: add. restraining           0.000000000000 Eh    ::
         :: total charge               0.000000000000 e     ::
         :::::::::::::::::::::::::::::::::::::::::::::::::::::

      ----------------------------------------------------------- 
     |                   =====================                   |
     |                        A N C O P T                        |
     |                   =====================                   |
     |               Approximate Normal Coordinate               |
     |                Rational Function Optimizer                |
      ----------------------------------------------------------- 

          ...................................................
          :                      SETUP                      :
          :.................................................:
          :   optimization level            normal          :
          :   max. optcycles                   200          :
          :   ANC micro-cycles                  20          :
          :   degrees of freedom                81          :
          :.................................................:
          :   RF solver                   davidson          :
          :   write xtbopt.log                true          :
          :   linear?                        false          :
          :   energy convergence         0.5000000E-05 Eh   :
          :   grad. convergence          0.1000000E-02 Eh/α :
          :   maxmium RF displ.          2.0000000          :
          :   Hlow (freq-cutoff)         0.2000000E-01      :
          :   Hmax (freq-cutoff)         5.0000000          :
          :   S6 in model hess.         70.0000000          :
          ...................................................

generating ANC from model Hessian ...
Using Lindh-Hessian (1995)
 Shifting diagonal of input Hessian by   1.913033150462951E-002
 Lowest  eigenvalues of input Hessian
    0.000000    0.000000    0.000000    0.000000    0.000000    0.000000
    0.020000    0.021397    0.022831    0.023266    0.024332    0.026391
    0.028186    0.030452    0.031874    0.032872    0.034951    0.035953
 Highest eigenvalues
    1.211818    1.220026    1.233310    1.269557    1.299388    1.314599
 

........................................................................
.............................. CYCLE    1 ..............................
........................................................................

 iter      E             dE          RMSdq      gap      omega  full diag
   1    -29.9131403 -0.299131E+02  0.213E-05   12.67       0.0  T
   2    -29.9131403 -0.169820E-11  0.119E-05   12.67    1561.3  T
   3    -29.9131403 -0.852651E-13  0.520E-06   12.67    3573.6  T
     SCC iter.                  ...        0 min,  0.003 sec
     gradient                   ...        0 min,  0.003 sec
 * total energy  :   -29.4823121 Eh     change       -0.2272316E-10 Eh
   gradient norm :     0.0278518 Eh/α   predicted     0.0000000E+00 (-100.00%)
   displ. norm   :     0.1613842 α      lambda       -0.2580610E-02
   maximum displ.:     0.0740293 α      in ANC's #35, #36, #23, ...

........................................................................
.............................. CYCLE    2 ..............................
........................................................................

 iter      E             dE          RMSdq      gap      omega  full diag
   1    -29.9223468 -0.299223E+02  0.139E-01   12.85       0.0  T
   2    -29.9223509 -0.414911E-05  0.799E-02   12.85       1.0  T
   3    -29.9223515 -0.553624E-06  0.411E-03   12.85       4.5  T
   4    -29.9223515 -0.765653E-07  0.136E-03   12.85      13.7  T
   5    -29.9223515 -0.371622E-08  0.733E-04   12.85      25.3  T
   6    -29.9223515 -0.392863E-09  0.758E-05   12.85     245.1  T
     SCC iter.                  ...        0 min,  0.004 sec
     gradient                   ...        0 min,  0.003 sec
 * total energy  :   -29.4839996 Eh     change       -0.1687505E-02 Eh
   gradient norm :     0.0121928 Eh/α   predicted    -0.1323913E-02 ( -21.55%)
   displ. norm   :     0.0788177 α      lambda       -0.4440796E-03
   maximum displ.:     0.0331701 α      in ANC's #35, #15, #36, ...

........................................................................
.............................. CYCLE    3 ..............................
........................................................................

 iter      E             dE          RMSdq      gap      omega  full diag
   1    -29.9280825 -0.299281E+02  0.625E-02   12.94       0.0  T
   2    -29.9280848 -0.236258E-05  0.354E-02   12.94       1.0  T
   3    -29.9280849 -0.100614E-06  0.373E-03   12.94       5.0  T
   4    -29.9280850 -0.239076E-07  0.670E-04   12.94      27.7  T
   5    -29.9280850 -0.166119E-08  0.378E-04   12.94      49.1  T
     SCC iter.                  ...        0 min,  0.004 sec
     gradient                   ...        0 min,  0.003 sec
 * total energy  :   -29.4842390 Eh     change       -0.2393725E-03 Eh
   gradient norm :     0.0022855 Eh/α   predicted    -0.2234334E-03 (  -6.66%)
   displ. norm   :     0.0246411 α      lambda       -0.1771566E-04
   maximum displ.:     0.0105905 α      in ANC's #1, #2, #6, ...

........................................................................
.............................. CYCLE    4 ..............................
........................................................................

 iter      E             dE          RMSdq      gap      omega  full diag
   1    -29.9287412 -0.299287E+02  0.655E-03   12.95       0.0  T
   2    -29.9287413 -0.716203E-07  0.376E-03   12.95       4.9  T
   3    -29.9287413 -0.128890E-08  0.777E-04   12.95      23.9  T
   4    -29.9287413 -0.564242E-09  0.115E-04   12.95     160.9  T
     SCC iter.                  ...        0 min,  0.003 sec
     gradient                   ...        0 min,  0.003 sec
 * total energy  :   -29.4842547 Eh     change       -0.1571503E-04 Eh
   gradient norm :     0.0006754 Eh/α   predicted    -0.9973455E-05 ( -36.54%)
   displ. norm   :     0.0950902 α      lambda       -0.3083203E-04
   maximum displ.:     0.0445881 α      in ANC's #1, #2, #6, ...

........................................................................
.............................. CYCLE    5 ..............................
........................................................................

 iter      E             dE          RMSdq      gap      omega  full diag
   1    -29.9293967 -0.299294E+02  0.174E-02   12.95       0.0  T
   2    -29.9293969 -0.193837E-06  0.103E-02   12.95       1.8  T
   3    -29.9293969 -0.121204E-07  0.107E-03   12.95      17.4  T
   4    -29.9293969 -0.419897E-08  0.332E-04   12.95      55.9  T
   5    -29.9293969 -0.453962E-09  0.135E-04   12.95     137.1  T
     SCC iter.                  ...        0 min,  0.004 sec
     gradient                   ...        0 min,  0.003 sec
 * total energy  :   -29.4842795 Eh     change       -0.2480168E-04 Eh
   gradient norm :     0.0032668 Eh/α   predicted    -0.1553706E-04 ( -37.35%)
   displ. norm   :     0.0355013 α      lambda       -0.1351502E-04
   maximum displ.:     0.0188799 α      in ANC's #1, #2, #3, ...

........................................................................
.............................. CYCLE    6 ..............................
........................................................................

 iter      E             dE          RMSdq      gap      omega  full diag
   1    -29.9290721 -0.299291E+02  0.570E-03   12.95       0.0  T
   2    -29.9290722 -0.222068E-07  0.335E-03   12.95       5.5  T
   3    -29.9290722 -0.903341E-09  0.365E-04   12.95      50.9  T
   4    -29.9290722 -0.396419E-09  0.981E-05   12.95     189.2  T
     SCC iter.                  ...        0 min,  0.003 sec
     gradient                   ...        0 min,  0.003 sec
 * total energy  :   -29.4842915 Eh     change       -0.1198065E-04 Eh
   gradient norm :     0.0024650 Eh/α   predicted    -0.6768516E-05 ( -43.50%)
   displ. norm   :     0.1334616 α      lambda       -0.4148722E-04
   maximum displ.:     0.0745520 α      in ANC's #1, #2, #3, ...

........................................................................
.............................. CYCLE    7 ..............................
........................................................................

 iter      E             dE          RMSdq      gap      omega  full diag
   1    -29.9280780 -0.299281E+02  0.210E-02   12.94       0.0  T
   2    -29.9280783 -0.239811E-06  0.124E-02   12.94       1.5  T
   3    -29.9280783 -0.965452E-08  0.113E-03   12.94      16.4  T
   4    -29.9280783 -0.515496E-08  0.342E-04   12.94      54.3  T
   5    -29.9280783 -0.470905E-09  0.155E-04   12.94     120.1  T
     SCC iter.                  ...        0 min,  0.003 sec
     gradient                   ...        0 min,  0.003 sec
 * total energy  :   -29.4843150 Eh     change       -0.2351614E-04 Eh
   gradient norm :     0.0007534 Eh/α   predicted    -0.2114023E-04 ( -10.10%)
   displ. norm   :     0.0533182 α      lambda       -0.5832118E-05
   maximum displ.:     0.0332844 α      in ANC's #1, #2, #3, ...

........................................................................
.............................. CYCLE    8 ..............................
........................................................................

 iter      E             dE          RMSdq      gap      omega  full diag
   1    -29.9281095 -0.299281E+02  0.844E-03   12.94       0.0  T
   2    -29.9281095 -0.926976E-08  0.501E-03   12.94       3.7  T
   3    -29.9281095 -0.104650E-08  0.285E-04   12.94      65.2  T
   4    -29.9281095 -0.841894E-09  0.125E-04   12.94     148.0  T
     SCC iter.                  ...        0 min,  0.003 sec
     gradient                   ...        0 min,  0.003 sec
 * total energy  :   -29.4843222 Eh     change       -0.7159927E-05 Eh
   gradient norm :     0.0010837 Eh/α   predicted    -0.2927869E-05 ( -59.11%)
   displ. norm   :     0.1315664 α      lambda       -0.1730984E-04
   maximum displ.:     0.0835821 α      in ANC's #1, #2, #5, ...

........................................................................
.............................. CYCLE    9 ..............................
........................................................................

 iter      E             dE          RMSdq      gap      omega  full diag
   1    -29.9284373 -0.299284E+02  0.218E-02   12.93       0.0  T
   2    -29.9284373 -0.452742E-07  0.129E-02   12.93       1.4  T
   3    -29.9284373 -0.791317E-08  0.640E-04   12.93      29.0  T
   4    -29.9284373 -0.373001E-08  0.304E-04   12.93      61.0  T
     SCC iter.                  ...        0 min,  0.003 sec
     gradient                   ...        0 min,  0.003 sec
 * total energy  :   -29.4843401 Eh     change       -0.1797733E-04 Eh
   gradient norm :     0.0011086 Eh/α   predicted    -0.8722318E-05 ( -51.48%)
   displ. norm   :     0.1134839 α      lambda       -0.9989164E-05
   maximum displ.:     0.0736247 α      in ANC's #1, #2, #5, ...

........................................................................
.............................. CYCLE   10 ..............................
........................................................................

 iter      E             dE          RMSdq      gap      omega  full diag
   1    -29.9283993 -0.299284E+02  0.191E-02   12.93       0.0  T
   2    -29.9283994 -0.256323E-07  0.113E-02   12.93       1.6  T
   3    -29.9283994 -0.658883E-08  0.486E-04   12.93      38.2  T
   4    -29.9283994 -0.157153E-08  0.250E-04   12.93      74.3  T
     SCC iter.                  ...        0 min,  0.003 sec
     gradient                   ...        0 min,  0.003 sec
 * total energy  :   -29.4843505 Eh     change       -0.1038297E-04 Eh
   gradient norm :     0.0006821 Eh/α   predicted    -0.5027801E-05 ( -51.58%)
   displ. norm   :     0.0807176 α      lambda       -0.6555509E-05
   maximum displ.:     0.0517504 α      in ANC's #1, #5, #2, ...

........................................................................
.............................. CYCLE   11 ..............................
........................................................................

 iter      E             dE          RMSdq      gap      omega  full diag
   1    -29.9286106 -0.299286E+02  0.143E-02   12.94       0.0  T
   2    -29.9286106 -0.190400E-07  0.846E-03   12.94       2.2  T
   3    -29.9286106 -0.379082E-08  0.345E-04   12.94      53.9  T
   4    -29.9286106 -0.535334E-09  0.174E-04   12.94     106.6  T
     SCC iter.                  ...        0 min,  0.003 sec
     gradient                   ...        0 min,  0.003 sec
 * total energy  :   -29.4843577 Eh     change       -0.7159727E-05 Eh
   gradient norm :     0.0004538 Eh/α   predicted    -0.3292638E-05 ( -54.01%)
   displ. norm   :     0.0932360 α      lambda       -0.6918237E-05
   maximum displ.:     0.0596451 α      in ANC's #1, #5, #2, ...

........................................................................
.............................. CYCLE   12 ..............................
........................................................................

 iter      E             dE          RMSdq      gap      omega  full diag
   1    -29.9284984 -0.299285E+02  0.167E-02   12.95       0.0  T
   2    -29.9284984 -0.140591E-07  0.986E-03   12.95       1.9  T
   3    -29.9284984 -0.529824E-08  0.354E-04   12.95      52.5  T
   4    -29.9284984 -0.244238E-09  0.175E-04   12.95     106.3  T
     SCC iter.                  ...        0 min,  0.003 sec
     gradient                   ...        0 min,  0.003 sec
 * total energy  :   -29.4843654 Eh     change       -0.7749250E-05 Eh
   gradient norm :     0.0007204 Eh/α   predicted    -0.3473350E-05 ( -55.18%)
   displ. norm   :     0.1148313 α      lambda       -0.8808519E-05
   maximum displ.:     0.0681045 α      in ANC's #1, #5, #2, ...

........................................................................
.............................. CYCLE   13 ..............................
........................................................................

 iter      E             dE          RMSdq      gap      omega  full diag
   1    -29.9285486 -0.299285E+02  0.198E-02   12.96       0.0  T
   2    -29.9285486 -0.203444E-07  0.118E-02   12.96       1.6  T
   3    -29.9285486 -0.680459E-08  0.439E-04   12.96      42.3  T
   4    -29.9285486 -0.660219E-09  0.227E-04   12.96      81.8  T
     SCC iter.                  ...        0 min,  0.003 sec
     gradient                   ...        0 min,  0.003 sec
 * total energy  :   -29.4843748 Eh     change       -0.9333920E-05 Eh
   gradient norm :     0.0009256 Eh/α   predicted    -0.4433031E-05 ( -52.51%)
   displ. norm   :     0.0985161 α      lambda       -0.6887622E-05
   maximum displ.:     0.0577319 α      in ANC's #1, #5, #2, ...

........................................................................
.............................. CYCLE   14 ..............................
........................................................................

 iter      E             dE          RMSdq      gap      omega  full diag
   1    -29.9283520 -0.299284E+02  0.168E-02   12.95       0.0  T
   2    -29.9283520 -0.180013E-07  0.998E-03   12.95       1.9  T
   3    -29.9283521 -0.473871E-08  0.381E-04   12.95      48.8  T
   4    -29.9283521 -0.661238E-09  0.196E-04   12.95      94.9  T
     SCC iter.                  ...        0 min,  0.003 sec
     gradient                   ...        0 min,  0.003 sec
 * total energy  :   -29.4843818 Eh     change       -0.7031967E-05 Eh
   gradient norm :     0.0007272 Eh/α   predicted    -0.3459355E-05 ( -50.81%)
   displ. norm   :     0.0492453 α      lambda       -0.4091065E-05
   maximum displ.:     0.0233985 α      in ANC's #3, #1, #2, ...

........................................................................
.............................. CYCLE   15 ..............................
........................................................................

 iter      E             dE          RMSdq      gap      omega  full diag
   1    -29.9285742 -0.299286E+02  0.829E-03   12.95       0.0  T
   2    -29.9285742 -0.694167E-08  0.494E-03   12.95       3.8  T
   3    -29.9285742 -0.188623E-08  0.248E-04   12.95      74.9  T
   4    -29.9285742 -0.329031E-09  0.129E-04   12.95     143.7  T
     SCC iter.                  ...        0 min,  0.003 sec
     gradient                   ...        0 min,  0.003 sec
 * total energy  :   -29.4843854 Eh     change       -0.3640589E-05 Eh
   gradient norm :     0.0002850 Eh/α   predicted    -0.2050160E-05 ( -43.69%)
   displ. norm   :     0.0347798 α      lambda       -0.1422874E-05
   maximum displ.:     0.0227673 α      in ANC's #1, #2, #4, ...

   *** GEOMETRY OPTIMIZATION CONVERGED AFTER 15 ITERATIONS ***

------------------------------------------------------------------------
 total energy gain   :        -0.0020733 Eh       -1.3010 kcal/mol
 total RMSD          :         0.1762236 a0        0.0933 Å
 total power (kW/mol):        -0.3629012 (step)  -44.2778 (real)
------------------------------------------------------------------------

 ANCopt (total)                0 d,  0 h,  0 min,  0.123 sec
 optimizer setup                ...        0 min,  0.001 sec (  0.818%)
 model hessian                  ...        0 min,  0.014 sec ( 11.291%)
 ANC generation                 ...        0 min,  0.001 sec (  0.848%)
 coordinate transformation      ...        0 min,  0.000 sec (  0.148%)
 single point calculation       ...        0 min,  0.101 sec ( 82.031%)
 optimization log               ...        0 min,  0.002 sec (  1.335%)
 hessian update                 ...        0 min,  0.001 sec (  0.523%)
 rational function              ...        0 min,  0.001 sec (  1.054%)

================
 final structure:
================
29
 xtb: 6.6.1 (8d0f1dd)
C           -3.45162709611921        1.49237490737930        0.81979815727877
C           -2.60374895742862        0.67801472907727       -0.15011758982265
C           -2.11220025644665       -0.61983317745208        0.48663358547832
C           -1.38285865833982       -1.54378040762153       -0.49044546077182
C           -0.12390204136929       -0.95235493171023       -1.12709569983160
C            0.95840496449286       -0.59282815709824       -0.11180227502684
C            2.24225669714406       -0.13174400491593       -0.79833635876171
C            3.38282006486494        0.15372056646687        0.17924188304414
C            3.11638533505817        1.35247995749931        1.08270207925159
H           -3.78310448328146        2.41860755805032        0.35575687254941
H           -2.87845492827117        1.74128540260316        1.71045308529298
H           -4.33020838333716        0.92894606158992        1.12678501143410
H           -1.75101867033212        1.28048105285793       -0.46679697121685
H           -3.19438356293229        0.44197742068705       -1.03843081945753
H           -1.46108410222761       -0.38512817739193        1.33058500100208
H           -2.97430153083272       -1.16161910044662        0.88504103450392
H           -2.07502912327714       -1.82305713792690       -1.28924005106927
H           -1.10810857591779       -2.45911236584302        0.04035659330536
H           -0.38478707656603       -0.06633685286120       -1.70859155708950
H            0.28043694646455       -1.68954754580521       -1.82629184464984
H            1.17527394025381       -1.46657390185355        0.50791181900839
H            0.59368661473778        0.20035537081122        0.54034114750525
H            2.03573462754707        0.76809444563967       -1.38313624860745
H            2.56685478828742       -0.90864089379365       -1.49566669987001
H            3.55860213956799       -0.73161168450946        0.79475992510575
H            4.29350442117960        0.34198649767045       -0.39475061470797
H            2.28398492292095        1.15907069803007        1.75417683117954
H            2.88253308452350        2.23281330274983        0.48753773264510
H            3.99361189963655        1.57128936811737        1.68762443229841
           -------------------------------------------------
          |                Final Singlepoint                |
           -------------------------------------------------

          ...................................................
          :                      SETUP                      :
          :.................................................:
          :  # basis functions                  56          :
          :  # atomic orbitals                  56          :
          :  # shells                           38          :
          :  # electrons                        56          :
          :  max. iterations                   250          :
          :  Hamiltonian                  GFN2-xTB          :
          :  restarted?                      false          :
          :  GBSA solvation                  false          :
          :  PC potential                    false          :
          :  electronic temp.          300.0000000     K    :
          :  accuracy                    1.0000000          :
          :  -> integral cutoff          0.2500000E+02      :
          :  -> integral neglect         0.1000000E-07      :
          :  -> SCF convergence          0.1000000E-05 Eh   :
          :  -> wf. convergence          0.1000000E-03 e    :
          :  Broyden damping             0.4000000          :
          ...................................................

 iter      E             dE          RMSdq      gap      omega  full diag
   1    -29.9285742 -0.299286E+02  0.266E-05   12.95       0.0  T
   2    -29.9285742 -0.945022E-12  0.151E-05   12.95    1225.9  T
   3    -29.9285742  0.355271E-14  0.428E-06   12.95    4336.8  T

   *** convergence criteria satisfied after 3 iterations ***

         #    Occupation            Energy/Eh            Energy/eV
      -------------------------------------------------------------
         1        2.0000           -0.6223856             -16.9360
       ...           ...                  ...                  ...
        22        2.0000           -0.4375035             -11.9051
        23        2.0000           -0.4283645             -11.6564
        24        2.0000           -0.4242081             -11.5433
        25        2.0000           -0.4221756             -11.4880
        26        2.0000           -0.4153947             -11.3035
        27        2.0000           -0.4128470             -11.2341
        28        2.0000           -0.4106090             -11.1732 (HOMO)
        29                          0.0653520               1.7783 (LUMO)
        30                          0.0810701               2.2060
        31                          0.1018548               2.7716
        32                          0.1068569               2.9077
        33                          0.1222462               3.3265
       ...                                ...                  ...
        56                          0.3228132               8.7842
      -------------------------------------------------------------
                  HL-Gap            0.4759610 Eh           12.9516 eV
             Fermi-level           -0.1726285 Eh           -4.6975 eV

 SCC (total)                   0 d,  0 h,  0 min,  0.045 sec
 SCC setup                      ...        0 min,  0.002 sec (  3.530%)
 Dispersion                     ...        0 min,  0.000 sec (  0.194%)
 classical contributions        ...        0 min,  0.000 sec (  0.053%)
 integral evaluation            ...        0 min,  0.002 sec (  3.375%)
 iterations                     ...        0 min,  0.009 sec ( 19.177%)
 molecular gradient             ...        0 min,  0.032 sec ( 70.749%)
 printout                       ...        0 min,  0.001 sec (  2.845%)

         :::::::::::::::::::::::::::::::::::::::::::::::::::::
         ::                     SUMMARY                     ::
         :::::::::::::::::::::::::::::::::::::::::::::::::::::
         :: total energy             -29.484385441934 Eh    ::
         :: gradient norm              0.000284770200 Eh/a0 ::
         :: HOMO-LUMO gap             12.951558405299 eV    ::
         ::.................................................::
         :: SCC energy               -29.928574203696 Eh    ::
         :: -> isotropic ES            0.005264557128 Eh    ::
         :: -> anisotropic ES          0.009658204512 Eh    ::
         :: -> anisotropic XC          0.018067917216 Eh    ::
         :: -> dispersion             -0.018312416025 Eh    ::
         :: repulsion energy           0.444056910682 Eh    ::
         :: add. restraining           0.000000000000 Eh    ::
         :: total charge               0.000000000000 e     ::
         :::::::::::::::::::::::::::::::::::::::::::::::::::::

           ------------------------------------------------- 
          |                Numerical Hessian                |
           ------------------------------------------------- 
step length          :   0.00500
SCC accuracy         :   0.30000
Hessian scale factor :   1.00000
frozen atoms in %    :   0.00000    0
RMS gradient         :   0.00028
estimated CPU  time      0.15 min
estimated wall time      0.04 min

writing file <hessian>.

 projected vibrational frequencies (cm⁻¹)
eigval :       -0.00    -0.00    -0.00    -0.00     0.00     0.00
eigval :       26.93    41.07    68.70    88.91   106.15   146.00
eigval :      202.81   221.05   241.76   270.11   290.80   321.41
eigval :      414.19   456.95   502.93   757.72   779.77   806.25
eigval :      822.52   880.10   893.71   928.63   933.64   975.62
eigval :     1002.17  1017.70  1057.40  1073.89  1091.10  1102.92
eigval :     1133.53  1147.26  1154.12  1161.46  1193.51  1225.86
eigval :     1253.74  1254.98  1281.29  1288.42  1288.94  1291.69
eigval :     1311.50  1352.76  1355.47  1363.57  1374.49  1378.10
eigval :     1415.75  1416.70  1489.72  1490.38  1492.61  1496.96
eigval :     1498.71  1502.18  1505.46  1506.04  1507.77  1508.90
eigval :     1511.51  2954.46  2954.92  2955.45  2957.98  2961.43
eigval :     2967.20  2970.12  2975.19  2976.16  2980.22  2987.87
eigval :     2988.54  2995.07  3005.49  3029.22  3029.96  3031.29
eigval :     3033.28  3037.05  3045.72
           -------------------------------------------------
          |                Property Printout                |
           -------------------------------------------------

    * Orbital Energies and Occupations

         #    Occupation            Energy/Eh            Energy/eV
      -------------------------------------------------------------
         1        2.0000           -0.6223856             -16.9360
       ...           ...                  ...                  ...
        16        2.0000           -0.4781063             -13.0099
        17        2.0000           -0.4680308             -12.7358
        18        2.0000           -0.4604780             -12.5302
        19        2.0000           -0.4541759             -12.3588
        20        2.0000           -0.4485309             -12.2051
        21        2.0000           -0.4414707             -12.0130
        22        2.0000           -0.4375035             -11.9051
        23        2.0000           -0.4283645             -11.6564
        24        2.0000           -0.4242081             -11.5433
        25        2.0000           -0.4221756             -11.4880
        26        2.0000           -0.4153947             -11.3035
        27        2.0000           -0.4128470             -11.2341
        28        2.0000           -0.4106090             -11.1732 (HOMO)
        29                          0.0653520               1.7783 (LUMO)
        30                          0.0810701               2.2060
        31                          0.1018548               2.7716
        32                          0.1068569               2.9077
        33                          0.1222462               3.3265
        34                          0.1251482               3.4055
        35                          0.1322964               3.6000
        36                          0.1389919               3.7822
        37                          0.1490354               4.0555
        38                          0.1529211               4.1612
        39                          0.1592361               4.3330
       ...                                ...                  ...
        56                          0.3228132               8.7842
      -------------------------------------------------------------
                  HL-Gap            0.4759610 Eh           12.9516 eV
             Fermi-level           -0.1726285 Eh           -4.6975 eV

     #   Z          covCN         q      C6AA      α(0)
     1   6 C        3.752    -0.102    22.501     6.764
     2   6 C        3.800    -0.053    21.518     6.605
     3   6 C        3.802    -0.058    21.621     6.620
     4   6 C        3.801    -0.058    21.609     6.618
     5   6 C        3.802    -0.058    21.614     6.619
     6   6 C        3.802    -0.058    21.624     6.620
     7   6 C        3.802    -0.058    21.612     6.619
     8   6 C        3.800    -0.052    21.516     6.604
     9   6 C        3.751    -0.101    22.495     6.764
    10   1 H        0.925     0.031     2.566     2.505
    11   1 H        0.925     0.032     2.560     2.502
    12   1 H        0.925     0.032     2.564     2.504
    13   1 H        0.924     0.032     2.557     2.501
    14   1 H        0.924     0.028     2.617     2.530
    15   1 H        0.924     0.031     2.572     2.508
    16   1 H        0.924     0.028     2.618     2.530
    17   1 H        0.924     0.027     2.623     2.533
    18   1 H        0.924     0.028     2.615     2.529
    19   1 H        0.924     0.030     2.584     2.514
    20   1 H        0.924     0.026     2.647     2.544
    21   1 H        0.924     0.028     2.613     2.528
    22   1 H        0.925     0.036     2.500     2.473
    23   1 H        0.924     0.029     2.605     2.524
    24   1 H        0.924     0.026     2.650     2.546
    25   1 H        0.924     0.029     2.604     2.523
    26   1 H        0.924     0.027     2.629     2.535
    27   1 H        0.925     0.034     2.528     2.486
    28   1 H        0.925     0.033     2.539     2.492
    29   1 H        0.925     0.030     2.581     2.512

 Mol. C6AA /au·bohr⁶  :       5486.585975
 Mol. C8AA /au·bohr⁸  :     113788.356327
 Mol. α(0) /au        :        110.152923


Wiberg/Mayer (AO) data.
largest (>0.10) Wiberg bond orders for each atom

 ---------------------------------------------------------------------------
     #   Z sym  total        # sym  WBO       # sym  WBO       # sym  WBO
 ---------------------------------------------------------------------------
     1   6 C    3.997 --     2 C    1.019    11 H    0.988    12 H    0.988
                            10 H    0.988
     2   6 C    3.998 --     1 C    1.019     3 C    1.009    14 H    0.978
                            13 H    0.977
     3   6 C    3.997 --     2 C    1.009     4 C    1.007    16 H    0.977
                            15 H    0.976
     4   6 C    3.997 --     3 C    1.007     5 C    1.007    17 H    0.978
                            18 H    0.978
     5   6 C    3.997 --     6 C    1.008     4 C    1.007    20 H    0.977
                            19 H    0.976
     6   6 C    3.998 --     5 C    1.008     7 C    1.008    21 H    0.977
                            22 H    0.973
     7   6 C    3.998 --     6 C    1.008     8 C    1.007    23 H    0.978
                            24 H    0.977
     8   6 C    3.998 --     9 C    1.020     7 C    1.007    26 H    0.979
                            25 H    0.978
     9   6 C    3.997 --     8 C    1.020    28 H    0.988    29 H    0.988
                            27 H    0.986
    10   1 H    0.999 --     1 C    0.988
    11   1 H    0.999 --     1 C    0.988
    12   1 H    0.999 --     1 C    0.988
    13   1 H    0.999 --     2 C    0.977
    14   1 H    0.999 --     2 C    0.978
    15   1 H    0.999 --     3 C    0.976
    16   1 H    0.999 --     3 C    0.977
    17   1 H    0.999 --     4 C    0.978
    18   1 H    0.999 --     4 C    0.978
    19   1 H    0.999 --     5 C    0.976
    20   1 H    0.999 --     5 C    0.977
    21   1 H    0.999 --     6 C    0.977
    22   1 H    0.999 --     6 C    0.973
    23   1 H    0.999 --     7 C    0.978
    24   1 H    0.999 --     7 C    0.977
    25   1 H    0.999 --     8 C    0.978
    26   1 H    0.999 --     8 C    0.979
    27   1 H    0.999 --     9 C    0.986
    28   1 H    0.999 --     9 C    0.988
    29   1 H    0.999 --     9 C    0.988
 ---------------------------------------------------------------------------

Topologies differ in total number of bonds
Writing topology from bond orders to xtbtopo.mol

molecular dipole:
                 x           y           z       tot (Debye)
 q only:       -0.002       0.019       0.017
   full:       -0.003       0.013       0.012       0.046
molecular quadrupole (traceless):
                xx          xy          yy          xz          yz          zz
 q only:       -0.172       0.025       0.042       0.000       0.053       0.130
  q+dip:       -0.524       0.170       0.410       0.429      -0.796       0.115
   full:       -0.278       0.106       0.208       0.206      -0.361       0.070

           -------------------------------------------------
          |                Geometry Summary                 |
           -------------------------------------------------

      molecular mass/u    :      128.2554381
   center of mass at/Å    :        0.0002198       0.0034550       0.0024719
  moments of inertia/u·Å² :        0.2211756E+03   0.8114896E+03   0.9545970E+03
rotational constants/cm⁻¹ :        0.7621832E-01   0.2077369E-01   0.1765942E-01

 * 28 selected distances

     #   Z          #   Z                                           value/Å
     1   6 C        2   6 C                                       1.5240790
     2   6 C        3   6 C                                       1.5269191
     3   6 C        4   6 C                                       1.5298044 (max)
     4   6 C        5   6 C                                       1.5297319
     5   6 C        6   6 C                                       1.5269149
     6   6 C        7   6 C                                       1.5271553
     7   6 C        8   6 C                                       1.5290633
     8   6 C        9   6 C                                       1.5245499
     1   6 C       10   1 H                                       1.0877126
     1   6 C       11   1 H                                       1.0880024
     1   6 C       12   1 H                                       1.0879330
     2   6 C       13   1 H                                       1.0910548
     2   6 C       14   1 H                                       1.0925491
     3   6 C       15   1 H                                       1.0914636
     3   6 C       16   1 H                                       1.0933798
     4   6 C       17   1 H                                       1.0932376
     4   6 C       18   1 H                                       1.0931931
     5   6 C       19   1 H                                       1.0914333
     5   6 C       20   1 H                                       1.0935348
     6   6 C       21   1 H                                       1.0929362
     6   6 C       22   1 H                                       1.0897022
     7   6 C       23   1 H                                       1.0928640
     7   6 C       24   1 H                                       1.0932532
     8   6 C       25   1 H                                       1.0925087
     8   6 C       26   1 H                                       1.0928210
     9   6 C       27   1 H                                       1.0868193 (min)
     9   6 C       28   1 H                                       1.0880692
     9   6 C       29   1 H                                       1.0878122

 * 2 distinct bonds (by element types)

   Z      Z             #   av. dist./Å        max./Å        min./Å
   1 H    6 C          20     1.0910140     1.0935348     1.0868193
   6 C    6 C           8     1.5272772     1.5298044     1.5240790

           -------------------------------------------------
          |               Frequency Printout                |
           -------------------------------------------------
 projected vibrational frequencies (cm⁻¹)
eigval :       -0.00    -0.00    -0.00    -0.00     0.00     0.00
eigval :       26.93    41.07    68.70    88.91   106.15   146.00
eigval :      202.81   221.05   241.76   270.11   290.80   321.41
eigval :      414.19   456.95   502.93   757.72   779.77   806.25
eigval :      822.52   880.10   893.71   928.63   933.64   975.62
eigval :     1002.17  1017.70  1057.40  1073.89  1091.10  1102.92
eigval :     1133.53  1147.26  1154.12  1161.46  1193.51  1225.86
eigval :     1253.74  1254.98  1281.29  1288.42  1288.94  1291.69
eigval :     1311.50  1352.76  1355.47  1363.57  1374.49  1378.10
eigval :     1415.75  1416.70  1489.72  1490.38  1492.61  1496.96
eigval :     1498.71  1502.18  1505.46  1506.04  1507.77  1508.90
eigval :     1511.51  2954.46  2954.92  2955.45  2957.98  2961.43
eigval :     2967.20  2970.12  2975.19  2976.16  2980.22  2987.87
eigval :     2988.54  2995.07  3005.49  3029.22  3029.96  3031.29
eigval :     3033.28  3037.05  3045.72
 reduced masses (amu)
   1:  9.57   2: 10.01   3:  9.91   4:  9.71   5: 10.01   6:  9.91   7:  8.66   8:  8.08
   9:  5.75  10:  7.87  11:  7.34  12:  5.83  13:  7.68  14:  3.80  15:  3.56  16:  5.98
  17:  8.56  18:  7.55  19:  8.41  20:  7.99  21:  8.19  22:  2.35  23:  2.38  24:  2.75
  25:  3.42  26:  5.08  27:  6.20  28:  5.52  29:  5.53  30:  6.83  31:  4.51  32:  4.99
  33:  5.90  34:  4.16  35:  8.14  36:  7.16  37:  7.57  38:  8.22  39:  7.44  40:  7.17
  41:  5.61  42:  4.63  43:  3.44  44:  3.71  45:  2.45  46:  2.26  47:  2.34  48:  2.61
  49:  3.34  50:  4.26  51:  4.68  52:  4.65  53:  5.13  54:  5.43  55:  3.22  56:  3.16
  57:  1.87  58:  1.92  59:  1.91  60:  1.85  61:  1.91  62:  1.86  63:  1.89  64:  1.57
  65:  1.64  66:  1.70  67:  1.56  68:  1.94  69:  1.82  70:  1.91  71:  1.87  72:  1.90
  73:  1.70  74:  1.76  75:  1.56  76:  1.60  77:  1.56  78:  1.63  79:  1.65  80:  1.63
  81:  1.68  82:  1.96  83:  1.91  84:  1.94  85:  1.74  86:  1.25  87:  1.50
 IR intensities (km·mol⁻¹)
   1:  0.00   2:  0.00   3:  0.00   4:  0.00   5:  0.00   6:  0.00   7:  0.00   8:  0.00
   9:  0.02  10:  0.01  11:  0.03  12:  0.06  13:  0.06  14:  0.06  15:  0.06  16:  0.22
  17:  0.24  18:  0.09  19:  0.11  20:  0.84  21:  0.93  22: 12.17  23: 12.58  24:  3.23
  25:  1.60  26:  0.13  27:  1.28  28:  0.22  29:  3.83  30:  2.65  31:  1.50  32:  1.70
  33:  0.90  34:  0.97  35:  0.18  36:  0.07  37:  0.69  38:  0.34  39:  0.97  40:  0.88
  41:  1.48  42:  1.43  43:  0.54  44:  0.26  45:  0.43  46:  0.10  47:  0.22  48:  0.05
  49:  1.18  50:  1.92  51:  1.34  52:  3.49  53:  0.16  54:  2.17  55:  2.11  56:  0.60
  57:  0.26  58:  0.72  59:  0.08  60:  0.54  61:  0.18  62:  0.54  63:  0.10  64:  2.01
  65:  1.78  66:  1.16  67:  2.32  68: 14.17  69: 14.04  70: 14.63  71: 24.30  72: 21.46
  73: 15.92  74: 34.42  75: 96.37  76: 42.76  77: 71.41  78: 33.57  79: 25.54  80:128.06
  81: 69.22  82: 82.30  83: 34.26  84: 76.00  85: 46.27  86: 31.28  87: 38.60
 Raman intensities (amu)
   1:  0.00   2:  0.00   3:  0.00   4:  0.00   5:  0.00   6:  0.00   7:  0.00   8:  0.00
   9:  0.00  10:  0.00  11:  0.00  12:  0.00  13:  0.00  14:  0.00  15:  0.00  16:  0.00
  17:  0.00  18:  0.00  19:  0.00  20:  0.00  21:  0.00  22:  0.00  23:  0.00  24:  0.00
  25:  0.00  26:  0.00  27:  0.00  28:  0.00  29:  0.00  30:  0.00  31:  0.00  32:  0.00
  33:  0.00  34:  0.00  35:  0.00  36:  0.00  37:  0.00  38:  0.00  39:  0.00  40:  0.00
  41:  0.00  42:  0.00  43:  0.00  44:  0.00  45:  0.00  46:  0.00  47:  0.00  48:  0.00
  49:  0.00  50:  0.00  51:  0.00  52:  0.00  53:  0.00  54:  0.00  55:  0.00  56:  0.00
  57:  0.00  58:  0.00  59:  0.00  60:  0.00  61:  0.00  62:  0.00  63:  0.00  64:  0.00
  65:  0.00  66:  0.00  67:  0.00  68:  0.00  69:  0.00  70:  0.00  71:  0.00  72:  0.00
  73:  0.00  74:  0.00  75:  0.00  76:  0.00  77:  0.00  78:  0.00  79:  0.00  80:  0.00
  81:  0.00  82:  0.00  83:  0.00  84:  0.00  85:  0.00  86:  0.00  87:  0.00
 output can be read by thermo (or use thermo option).
 writing <g98.out> molden fake output.
 recommended (thermochemical) frequency scaling factor: 1.0
           -------------------------------------------------
          |             Thermodynamic Functions             |
           -------------------------------------------------

Molecule has no symmetry elements
It seems to be the C1 point group
c1  symmetry found (for desy threshold:  0.10E+00) used in thermo

          ...................................................
          :                      SETUP                      :
          :.................................................:
          :  # frequencies                          81      :
          :  # imaginary freq.                       0      :
          :  linear?                             false      :
          :  only rotor calc.                    false      :
          :  symmetry                               c1      :
          :  rotational number                       1      :
          :  scaling factor                  1.0000000      :
          :  rotor cutoff                   50.0000000 cm⁻¹ :
          :  imag. cutoff                  -20.0000000 cm⁻¹ :
          :.................................................:

    mode    ω/cm⁻¹     T·S(HO)/kcal·mol⁻¹    T·S(FR)/kcal·mol⁻¹   T·S(vib)
   ------------------------------------------------------------------------
       1     26.93    -1.80183 (  7.77%)    -1.23954 ( 92.23%)    -1.28321
       2     41.07    -1.55244 ( 31.28%)    -1.11467 ( 68.72%)    -1.25159
       3     68.70    -1.24935 ( 78.09%)    -0.96233 ( 21.91%)    -1.18646
       4     88.91    -1.09835 ( 90.91%)    -0.88595 (  9.09%)    -1.07904
       5    106.15    -0.99527 ( 95.31%)    -0.83346 (  4.69%)    -0.98768
       6    146.00    -0.81206 ( 98.64%)    -0.73904 (  1.36%)    -0.81107
       7    202.81    -0.62833 ( 99.63%)    -0.64170 (  0.37%)    -0.62838
       8    221.05    -0.58154 ( 99.74%)    -0.61619 (  0.26%)    -0.58163
       9    241.76    -0.53364 ( 99.82%)    -0.58966 (  0.18%)    -0.53375
      10    270.11    -0.47571 ( 99.88%)    -0.55682 (  0.12%)    -0.47580
      11    290.80    -0.43807 ( 99.91%)    -0.53496 (  0.09%)    -0.43815
   ------------------------------------------------------------------------

   temp. (K)  partition function   enthalpy   heat capacity  entropy
                                   cal/mol     cal/K/mol   cal/K/mol   J/K/mol
 298.15  VIB  0.339E+05             5879.994     35.313     37.402
         ROT  0.100E+07              888.752      2.981     30.436
         INT  0.339E+11             6768.746     38.294     67.838
         TR   0.141E+28             1481.254      4.968     40.441
         TOT                        8250.0001    43.2622   108.2795   453.0412

       T/K    H(0)-H(T)+PV         H(T)/Eh          T*S/Eh         G(T)/Eh
   ------------------------------------------------------------------------
    298.15    0.131472E-01    0.285418E+00    0.514471E-01    0.233971E+00
   ------------------------------------------------------------------------

         :::::::::::::::::::::::::::::::::::::::::::::::::::::
         ::                  THERMODYNAMIC                  ::
         :::::::::::::::::::::::::::::::::::::::::::::::::::::
         :: total free energy         -29.250414780123 Eh   ::
         ::.................................................::
         :: total energy              -29.484385441935 Eh   ::
         :: zero point energy           0.272270512044 Eh   ::
         :: G(RRHO) w/o ZPVE           -0.038299850233 Eh   ::
         :: G(RRHO) contrib.            0.233970661811 Eh   ::
         :::::::::::::::::::::::::::::::::::::::::::::::::::::
 
 normal mode %tage of torsion character
   1:  0.00   2:  0.00   3:  0.00   4:  0.00   5:  0.00   6:  0.00   7:  0.46   8:  0.35
   9:  0.62  10:  0.56  11:  0.61  12:  0.43  13:  0.57  14:  0.67  15:  0.81  16:  0.67
  17:  0.24  18:  0.44  19:  0.17  20:  0.14  21:  0.22  22:  0.57  23:  0.46  24:  0.51
  25:  0.51  26:  0.41  27:  0.30  28:  0.18  29:  0.20  30:  0.28  31:  0.29  32:  0.30
  33:  0.19  34:  0.19  35:  0.18  36:  0.25  37:  0.17  38:  0.09  39:  0.37  40:  0.28
  41:  0.38  42:  0.41  43:  0.22  44:  0.33  45:  0.27  46:  0.10  47:  0.13  48:  0.14
  49:  0.07  50:  0.09  51:  0.09  52:  0.09  53:  0.07  54:  0.06  55:  0.00  56:  0.00
  57:  0.65  58:  0.62  59:  0.65  60:  0.66  61:  0.65  62:  0.62  63:  0.67  64:  0.87
  65:  0.80  66:  0.85  67:  0.90  68:  0.24  69:  0.26  70:  0.25  71:  0.30  72:  0.16
  73:  0.09  74:  0.19  75:  0.01  76:  0.02  77:  0.01  78:  0.04  79:  0.03  80:  0.06
  81:  0.07  82:  0.07  83:  0.04  84:  0.03  85:  0.03  86:  0.00  87:  0.02
 recommended # of modes for mode following           4

optimized geometry written to: xtbopt.xyz


           -------------------------------------------------
          | TOTAL ENERGY              -29.484385441935 Eh   |
          | TOTAL ENTHALPY            -29.198967717882 Eh   |
          | TOTAL FREE ENERGY         -29.250414780123 Eh   |
          | GRADIENT NORM               0.000284772056 Eh/α |
          | HOMO-LUMO GAP              12.951558181771 eV   |
           -------------------------------------------------

------------------------------------------------------------------------
 * finished run on 2024/04/20 at 10:58:34.505     
------------------------------------------------------------------------
 total:
 * wall-time:     0 d,  0 h,  0 min,  1.121 sec
 *  cpu-time:     0 d,  0 h,  0 min,  3.231 sec
 * ratio c/w:     2.884 speedup
 SCF:
 * wall-time:     0 d,  0 h,  0 min,  0.018 sec
 *  cpu-time:     0 d,  0 h,  0 min,  0.067 sec
 * ratio c/w:     3.757 speedup
 ANC optimizer:
 * wall-time:     0 d,  0 h,  0 min,  0.175 sec
 *  cpu-time:     0 d,  0 h,  0 min,  0.559 sec
 * ratio c/w:     3.203 speedup
 analytical hessian:
 * wall-time:     0 d,  0 h,  0 min,  0.889 sec
 *  cpu-time:     0 d,  0 h,  0 min,  2.494 sec
 * ratio c/w:     2.807 speedup

