29
 energy: -29.482312115423 gnorm: 0.027851835739 xtb: 6.6.1 (8d0f1dd)
C           -3.34552500000000        1.55048700000000        0.81739400000000
C           -2.59551100000000        0.65991500000000       -0.16113200000000
C           -2.09401000000000       -0.63325500000000        0.48434800000000
C           -1.39369600000000       -1.57964900000000       -0.49583100000000
C           -0.13322900000000       -0.99815800000000       -1.14349200000000
C            0.96072300000000       -0.63579200000000       -0.13889800000000
C            2.23318700000000       -0.11428800000000       -0.80764400000000
C            3.35985800000000        0.19922900000000        0.18212600000000
C            3.03116900000000        1.34730100000000        1.12490200000000
H           -3.69857500000000        2.47193800000000        0.34771500000000
H           -2.71070100000000        1.83439500000000        1.65952500000000
H           -4.21691800000000        1.03811000000000        1.23065900000000
H           -1.74845700000000        1.21022300000000       -0.59132400000000
H           -3.23846500000000        0.41204200000000       -1.01664500000000
H           -1.42089300000000       -0.38907700000000        1.31498100000000
H           -2.94236800000000       -1.14741100000000        0.95616900000000
H           -2.10715600000000       -1.87387800000000       -1.27718800000000
H           -1.13030400000000       -2.51353000000000        0.01864000000000
H           -0.39128400000000       -0.11252700000000       -1.73626400000000
H            0.27411000000000       -1.71227800000000       -1.87164000000000
H            1.20021500000000       -1.51207400000000        0.47626100000000
H            0.58215800000000        0.11373600000000        0.56518500000000
H            1.99609100000000        0.78458400000000       -1.39051300000000
H            2.57624000000000       -0.85156200000000       -1.54581000000000
H            3.59405700000000       -0.70473400000000        0.76083000000000
H            4.28253300000000        0.43013700000000       -0.37004400000000
H            2.17793100000000        1.11188000000000        1.76402100000000
H            2.77865600000000        2.25337600000000        0.56987200000000
H            3.86943700000000        1.59018900000000        1.78280000000000
29
 energy: -29.483999620214 gnorm: 0.012192808940 xtb: 6.6.1 (8d0f1dd)
C           -3.34431675670576        1.54307767450938        0.81960723548741
C           -2.59423139547749        0.65968529829180       -0.16481580367637
C           -2.09194479380012       -0.62842435646200        0.48564150617768
C           -1.38915307009559       -1.57037756804138       -0.49374559897979
C           -0.12943907611986       -0.99231254187122       -1.14211446532497
C            0.96052231499700       -0.63589018029102       -0.13338513314486
C            2.22776455793648       -0.11285616955454       -0.80686752223387
C            3.35292019794894        0.19492509709376        0.18278126091787
C            3.02743714545990        1.34683768067493        1.12189968955771
H           -3.69025961136816        2.45731841147167        0.33808081083605
H           -2.70283164440339        1.82535378841311        1.65452629646368
H           -4.21401059415051        1.02560295097102        1.22432574265285
H           -1.74689785027206        1.21826954692180       -0.57375290527213
H           -3.24802235223855        0.40768926359049       -1.00714982530937
H           -1.41640077957958       -0.38102661769349        1.30967355622463
H           -2.94395492246992       -1.15406005012514        0.93179987639180
H           -2.09617280013488       -1.85134133607574       -1.28241586012570
H           -1.12360371692273       -2.49366853626556        0.03325941240701
H           -0.38975393029276       -0.10519606359939       -1.72696205967034
H            0.26954959953457       -1.72520515413536       -1.85267522280829
H            1.20450761198147       -1.51975414057648        0.46600997954726
H            0.58080998343347        0.12474593865195        0.55236995801382
H            1.98985830764520        0.79141493367241       -1.37741296280218
H            2.58105297936403       -0.85828833243709       -1.52804400475013
H            3.57628314163317       -0.70385951861349        0.76815225481333
H            4.26206153808474        0.43917072509338       -0.37870933643680
H            2.18117449171399        1.10534167269197        1.76295211658103
H            2.78048137076875        2.24709923419360        0.55919578677333
H            3.87584305352966        1.57505734950062        1.76677821768936
29
 energy: -29.484238992733 gnorm: 0.002285479154 xtb: 6.6.1 (8d0f1dd)
C           -3.34633549260297        1.54068256219453        0.82153461522355
C           -2.59342845890689        0.66070892540511       -0.16674079913105
C           -2.09234807344045       -0.62600629209399        0.48467778263599
C           -1.38672709488288       -1.56686346413778       -0.49313521713705
C           -0.12637834948230       -0.99081916186364       -1.14137580307634
C            0.96015887671174       -0.63476634405640       -0.13009377293633
C            2.22565012916534       -0.11401412798698       -0.80676257193923
C            3.35087635619216        0.19292379202210        0.18201567629910
C            3.02743413232601        1.34770347274015        1.12150874431508
H           -3.69017387367266        2.45188633271275        0.33654762241844
H           -2.70167682604454        1.81893753038539        1.65315756506711
H           -4.21266918507178        1.01789459717452        1.22201367223292
H           -1.74783368218329        1.22366422923562       -0.56566625562203
H           -3.25018980651286        0.40702450182849       -1.00272806857635
H           -1.41924044216180       -0.37669419062197        1.30701266779882
H           -2.94560514885054       -1.15679084537092        0.91678103893048
H           -2.08958671194862       -1.84074402985162       -1.28493619876789
H           -1.11958170767665       -2.48369037207963        0.03979397050596
H           -0.38489310224176       -0.10387129520256       -1.72295168270681
H            0.26850212605373       -1.73215332040700       -1.84215978500132
H            1.20577341675091       -1.52088007396703        0.46125898781898
H            0.58071535260552        0.12911939922985        0.54798465353233
H            1.98668979304670        0.79180438380681       -1.37024851368435
H            2.58114699482171       -0.86176858652280       -1.52105849243761
H            3.56688937210399       -0.70270530384681        0.77002023461279
H            4.25307990613556        0.44091779054210       -0.38346595037207
H            2.18519277256650        1.10513671651706        1.76434534776665
H            2.78183757211220        2.24327007778081        0.55413328573501
H            3.88199415508796        1.56942209643387        1.75754024649520
29
 energy: -29.484254707759 gnorm: 0.000675366985 xtb: 6.6.1 (8d0f1dd)
C           -3.34830261030651        1.54007566230512        0.82246198947700
C           -2.59392941912231        0.66167526522614       -0.16770696598921
C           -2.09370121387350       -0.62532862088284        0.48379751848482
C           -1.38658797929775       -1.56626535467131       -0.49345268568707
C           -0.12523691363513       -0.99100572400259       -1.14107517236388
C            0.96039360503197       -0.63478579941948       -0.12880766723258
C            2.22540785481466       -0.11410838153820       -0.80663153845854
C            3.35159429419320        0.19203007224099        0.18170386051563
C            3.02944948142686        1.34850707271896        1.12099682017796
H           -3.69290382356485        2.45138975907732        0.33880678585677
H           -2.70358750284539        1.81684387399629        1.65425375853008
H           -4.21352123743411        1.01506594047244        1.22178621577013
H           -1.74869884825851        1.22585509370710       -0.56459784243344
H           -3.24995853338308        0.40892427240793       -1.00398107619022
H           -1.42270531034330       -0.37658214144406        1.30768002436702
H           -2.94755622038125       -1.15667286748319        0.91280524904798
H           -2.08843796415985       -1.84000745261416       -1.28554902472221
H           -1.11935136812701       -2.48206974335881        0.04025769033458
H           -0.38216999101608       -0.10476987673372       -1.72383372819585
H            0.26987677136313       -1.73353242798389       -1.83966353064655
H            1.20577541575556       -1.52031974536415        0.46275032953232
H            0.58094425759858        0.12939593905354        0.54832215946675
H            1.98619579230318        0.79133570402536       -1.36995657118710
H            2.57979864245265       -0.86219059847003       -1.52048122873211
H            3.56628706205123       -0.70305807009522        0.77025647396888
H            4.25318021513390        0.43940274612336       -0.38403044007661
H            2.18870531566948        1.10641317692312        1.76564684912941
H            2.78266793723491        2.24299657229214        0.55287032843484
H            3.88564529071933        1.57011465349186        1.75437441882124
29
 energy: -29.484279509436 gnorm: 0.003266791225 xtb: 6.6.1 (8d0f1dd)
C           -3.35627496736987        1.53732034045735        0.82539813972795
C           -2.59636718002144        0.66577898858498       -0.17017043946820
C           -2.09957813384812       -0.62349784080119        0.47954805681730
C           -1.38677222791760       -1.56461972602669       -0.49487509731800
C           -0.12181503790234       -0.99203804666901       -1.13925360671551
C            0.96093655370893       -0.63372590752227       -0.12434138090849
C            2.22547267665678       -0.11483184409170       -0.80515273943277
C            3.35512182437812        0.18949910792225        0.18053962336085
C            3.03877921565485        1.35115385483232        1.11849036451374
H           -3.70431038821958        2.45002591301627        0.34777332715083
H           -2.71241135243244        1.80958989175627        1.65892109280399
H           -4.21842317491873        1.00467992780832        1.22045107021725
H           -1.75125229140465        1.23378949785678       -0.56046245519396
H           -3.24908262308201        0.41743799296445       -1.00952257530689
H           -1.43578737033457       -0.37756437489491        1.30980272024098
H           -2.95633074647683       -1.15604645051759        0.89940175497199
H           -2.08547681452709       -1.83929996758748       -1.28838276508473
H           -1.12028931192886       -2.47843323310031        0.04120600089335
H           -0.37342764637445       -0.10820003289497       -1.72728804732287
H            0.27529709940310       -1.73811725455164       -1.83171696076003
H            1.20571465519683       -1.51734317525516        0.46921814599646
H            0.58106936126729        0.13129204867270        0.55098557824633
H            1.98574874589391        0.78972469641032       -1.36868713790323
H            2.57568369573029       -0.86384900395683       -1.51929882824978
H            3.56608715528008       -0.70434055744757        0.77112372375478
H            4.25625877483400        0.43264304900747       -0.38621719553984
H            2.20346327480617        1.11116877156859        1.77070793124878
H            2.78670601835678        2.24225121294543        0.54795656609666
H            3.90053321559144        1.57488112151386        1.74284813316308
29
 energy: -29.484291490086 gnorm: 0.002464977161 xtb: 6.6.1 (8d0f1dd)
C           -3.35920802393961        1.53574557508755        0.82596017580538
C           -2.59741122137547        0.66717657410421       -0.17030188346517
C           -2.10182655663122       -0.62332811913110        0.47785439847893
C           -1.38715986141242       -1.56401400802927       -0.49541304042969
C           -0.12121340696247       -0.99211774327813       -1.13809451723474
C            0.96094988219616       -0.63275675946273       -0.12288989257027
C            2.22580569728395       -0.11495446974670       -0.80399776421625
C            3.35653294204019        0.18874122566175        0.18036530464811
C            3.04287249516938        1.35174025028285        1.11705655098737
H           -3.70834677711039        2.44914134710270        0.35029207877677
H           -2.71658643248202        1.80729255291509        1.66077549535827
H           -4.22108899753151        1.00115422333560        1.21919981397442
H           -1.75155967411776        1.23615444361817       -0.55808978030229
H           -3.24865784233465        0.42074431663685       -1.01162260592664
H           -1.43982312503184       -0.37865285374281        1.31008999055380
H           -2.95986363003513       -1.15610635806087        0.89538422155768
H           -2.08467793062840       -1.83933467503381       -1.29004470794095
H           -1.12175892220593       -2.47797403807954        0.04138114539360
H           -0.37184804868905       -0.10893135248722       -1.72783631146955
H            0.27682595177450       -1.73915216773876       -1.82938865555329
H            1.20552827947330       -1.51593659947338        0.47180758024005
H            0.58080862026148        0.13290414964632        0.55190309088437
H            1.98649538566125        0.78970831969425       -1.36788024520087
H            2.57492348486952       -0.86448550521889       -1.51849945494858
H            3.56694130791435       -0.70489256649424        0.77178294269706
H            4.25789142415155        0.42962367386020       -0.38747093914395
H            2.20960071869607        1.11268848016421        1.77234887931463
H            2.78873052164810        2.24191776586301        0.54582979631551
H            3.90639673934809        1.57723331800473        1.73850133341630
29
 energy: -29.484315006224 gnorm: 0.000753399271 xtb: 6.6.1 (8d0f1dd)
C           -3.37057283803039        1.52937673805173        0.82741174756811
C           -2.60083671530006        0.67177002544890       -0.17022259317561
C           -2.10984491164486       -0.62331911431188        0.47229094503440
C           -1.38869962491950       -1.56173631445062       -0.49732520715431
C           -0.11949625738462       -0.99141235631742       -1.13355057598106
C            0.96051687485970       -0.62841499878835       -0.11721285282355
C            2.22690728535224       -0.11572964204271       -0.79950765457859
C            3.36175700001559        0.18555310392960        0.17986742609714
C            3.05863292396478        1.35378030438442        1.11143630577964
H           -3.72280481759178        2.44509405115699        0.35777940567117
H           -2.73372141138547        1.79868528784819        1.66774403650639
H           -4.23217797083166        0.98814270228035        1.21311632991564
H           -1.75185137287155        1.24415184079448       -0.54767020853815
H           -3.24582653250244        0.43211470488376       -1.01918347799142
H           -1.45367724247999       -0.38321175351579        1.31099257255827
H           -2.97223972740934       -1.15704779651800        0.88148367622415
H           -2.08139281483373       -1.83837981044059       -1.29673609869747
H           -1.12761711197272       -2.47660323416467        0.04141663088444
H           -0.36763553462539       -0.11014911711152       -1.72810952824153
H            0.28168616048088       -1.74114211169237       -1.82132551171172
H            1.20393512174879       -1.50993174431019        0.48158377905103
H            0.57979951209489        0.14023740387867        0.55483930602788
H            1.98997738422904        0.78958323834211       -1.36435096707489
H            2.57199102270452       -0.86734914586663       -1.51479843175864
H            3.57012692053988       -0.70710114816171        0.77452475639197
H            4.26338887707465        0.41759508619100       -0.39278904276038
H            2.23300126430752        1.11868723749847        1.77821745639787
H            2.79707973252682        2.24030930525892        0.53724474251880
H            3.92886780388425        1.58577625774491        1.72183603386043
29
 energy: -29.484322166151 gnorm: 0.001083668048 xtb: 6.6.1 (8d0f1dd)
C           -3.37556418089419        1.52666958516505        0.82703036685804
C           -2.60147263297152        0.67248698316393       -0.16936317787073
C           -2.11208546770322       -0.62409444887408        0.47147881925047
C           -1.38938721242859       -1.56103977150432       -0.49795612242192
C           -0.11956526581701       -0.98967374287664       -1.13171512853743
C            0.95983932803527       -0.62599220013180       -0.11490221961103
C            2.22716724856056       -0.11629639149121       -0.79777303599386
C            3.36383773687304        0.18374223375590        0.17981679704375
C            3.06501405295183        1.35437610021506        1.10900389186968
H           -3.72759361596161        2.44289921391784        0.35810258997584
H           -2.74229741943359        1.79544223299258        1.67032118426806
H           -4.23791734631070        0.98370835389802        1.20873676653000
H           -1.75108381439812        1.24601262809820       -0.54191407236749
H           -3.24292303145460        0.43479244834974       -1.02160772938762
H           -1.45715946919637       -0.38557953663453        1.31155918215274
H           -2.97543842551760       -1.15813655169049        0.87827876351155
H           -2.08037885794941       -1.83683993810570       -1.29927649883573
H           -1.12964360814035       -2.47676781850591        0.04014364452641
H           -0.36804342505613       -0.10840093701439       -1.72614166214549
H            0.28265744077486       -1.73893915883504       -1.81946507174395
H            1.20196855450589       -1.50673544468725        0.48561918240246
H            0.57953952868190        0.14448631904544        0.55534997490806
H            1.99195582606623        0.78925179703049       -1.36305987986740
H            2.57042635286597       -0.86913675256057       -1.51268258571669
H            3.57128264507642       -0.70832188271784        0.77585613293647
H            4.26510330704567        0.41218688304750       -0.39505582287472
H            2.24209702740956        1.12152791294925        1.77980960501773
H            2.80134582262741        2.23945290955424        0.53350322127874
H            3.93759190175845        1.58824797444659        1.71530588484409
29
 energy: -29.484340143482 gnorm: 0.001108649973 xtb: 6.6.1 (8d0f1dd)
C           -3.38830736578302        1.52028259218519        0.82455734813958
C           -2.60132749261806        0.67190955534351       -0.16606088687370
C           -2.11517229288893       -0.62701261263246        0.47295915188616
C           -1.39072100027438       -1.55949296147998       -0.49899869515919
C           -0.12092061938360       -0.98263807119106       -1.12800777339305
C            0.95738073806169       -0.61907779088046       -0.10970687673151
C            2.22753283032333       -0.11848446565207       -0.79442673408802
C            3.36841964222129        0.17856494097893        0.17961795310012
C            3.07946178818065        1.35545821597948        1.10344667795427
H           -3.73688270659505        2.43709997553623        0.35413741558268
H           -2.76562555956191        1.78810821373417        1.67612311543230
H           -4.25404884345223        0.97463872767243        1.19470548118083
H           -1.74776358515572        1.24843184723025       -0.52611611675117
H           -3.23259642691590        0.43675444683039       -1.02642643435962
H           -1.46122675388320       -0.39170941470384        1.31442640886036
H           -2.97946544767794       -1.16188006959459        0.87595101054490
H           -2.07920892668546       -1.83113454636895       -1.30375288019831
H           -1.13212362692984       -2.47799882791992        0.03466060115503
H           -0.37213655983109       -0.09976736575776       -1.71861667898982
H            0.28367315153615       -1.72795698647030       -1.81831497964849
H            1.19473913304317       -1.49791308221430        0.49511859644114
H            0.57940372566821        0.15657494452865        0.55567943261128
H            1.99733945892249        0.78713326414513       -1.36142291253911
H            2.56575847063190       -0.87515826672944       -1.50731283946919
H            3.57269097529691       -0.71186438347060        0.77908651396707
H            4.26868576018252        0.39863572084247       -0.39983332608056
H            2.26132319787080        1.12895751330657        1.78195660443513
H            2.81330282619766        2.23732808793240        0.52427195740330
H            3.95708850949962        1.59153979881998        1.70130186558763
29
 energy: -29.484350526451 gnorm: 0.000682124577 xtb: 6.6.1 (8d0f1dd)
C           -3.40019269627854        1.51503274355307        0.82232983072277
C           -2.60083313515054        0.67109267864879       -0.16275922937889
C           -2.11670821374481       -0.62899773443675        0.47539222311168
C           -1.39101252530859       -1.55774479380751       -0.49939664910081
C           -0.12212636615585       -0.97560023452936       -1.12556969887225
C            0.95547501764541       -0.61282852154088       -0.10609310048383
C            2.22816124714431       -0.12063145367306       -0.79239959822455
C            3.37199614266165        0.17368311901736        0.17914391722038
C            3.09098759052762        1.35618961349846        1.09884434613292
H           -3.74494192087033        2.43256353070299        0.35050765032004
H           -2.78710686243106        1.78123112859905        1.68130356118114
H           -4.26896861743878        0.96666844734342        1.18127645271084
H           -1.74539966222318        1.25124901115803       -0.51235602188586
H           -3.22281667941334        0.43695990114999       -1.03014789299455
H           -1.46376796951998       -0.39619535050551        1.31836206601086
H           -2.98169191744654       -1.16491083797200        0.87540328448596
H           -2.07901626157819       -1.82626143844856       -1.30548019262419
H           -1.13121006896996       -2.47825620451969        0.03002840000387
H           -0.37528785304257       -0.09122302182694       -1.71304642354607
H            0.28466684323592       -1.71731621821410       -1.81838384069300
H            1.18807444283606       -1.49020446029713        0.50256498856081
H            0.57997827898035        0.16709526679858        0.55570521365243
H            2.00203432529043        0.78415959590306       -1.36222355588714
H            2.56165809611933       -0.88142381818828       -1.50305597806121
H            3.57220811185298       -0.71543136786194        0.78177068128203
H            4.27238386559635        0.38673812156918       -0.40257507104827
H            2.27555565907993        1.13543365527057        1.78258582431806
H            2.82460796087181        2.23585816720675        0.51644905933717
H            3.97256616773022        1.59239947540254        1.69082275374972
29
 energy: -29.484357686178 gnorm: 0.000453838704 xtb: 6.6.1 (8d0f1dd)
C           -3.40915986635833        1.51117493871241        0.82069540265247
C           -2.60021921501751        0.67044874711418       -0.15987893148749
C           -2.11638347293680       -0.62951005220840        0.47838478196946
C           -1.39016569586004       -1.55565394833122       -0.49876531469664
C           -0.12306926797170       -0.96980254526796       -1.12488972248365
C            0.95451942933559       -0.60811455977708       -0.10504277123604
C            2.22924751935673       -0.12256296471746       -0.79218502230019
C            3.37382054104879        0.16998136176645        0.17874569922641
C            3.09754257941751        1.35609785166048        1.09580373242541
H           -3.75024378226434        2.42931554696399        0.34765437884051
H           -2.80370577001340        1.77561195029987        1.68538052310077
H           -4.28044512022523        0.96110224165828        1.17034454123679
H           -1.74443184791099        1.25398057767770       -0.50250798405006
H           -3.21544281112751        0.43583378433237       -1.03177048385000
H           -1.46388073042767       -0.39786853822788        1.32197683626338
H           -2.98121170251370       -1.16658157403996        0.87705980355194
H           -2.07909132422800       -1.82318377015808       -1.30422158917071
H           -1.12764347096085       -2.47682303597581        0.02794407294340
H           -0.37779844346146       -0.08436472784663       -1.70998637231911
H            0.28467802550376       -1.70897781953114       -1.81983953337127
H            1.18338413490550       -1.48476874149701        0.50597061896816
H            0.58128854513291        0.17464843113097        0.55468677268670
H            2.00631486687138        0.78105498762279       -1.36503470552716
H            2.55979046350481       -0.88684807615019       -1.50046573881670
H            3.56995648908663       -0.71826690464936        0.78376039925323
H            4.27523188154543        0.37815692949238       -0.40285406924837
H            2.28198614195515        1.13997018498007        1.78065683809826
H            2.83384209695737        2.23501338223278        0.51126693229993
H            3.98056280665608        1.59026534273358        1.68611390504061
29
 energy: -29.484365435427 gnorm: 0.000720431732 xtb: 6.6.1 (8d0f1dd)
C           -3.42029018217155        1.50647955400722        0.81961475099625
C           -2.60015362894399        0.67094999084871       -0.15675889093116
C           -2.11559316065161       -0.62865675990779        0.48139495314942
C           -1.38851391684260       -1.55279783945835       -0.49729455015160
C           -0.12381710503130       -0.96360950509798       -1.12478929378324
C            0.95436329029605       -0.60303463515360       -0.10528056547090
C            2.23149063168972       -0.12480117445590       -0.79291477568622
C            3.37597285937925        0.16555148819937        0.17845036819051
C            3.10402186327137        1.35562308555686        1.09229920624567
H           -3.75761495126676        2.42610029480301        0.34680779335541
H           -2.82387551950288        1.76786527466540        1.69143380469131
H           -4.29427618531680        0.95347203948603        1.15774225261102
H           -1.74440615418229        1.25912532922685       -0.49165386646645
H           -3.20786764363897        0.43565357157198       -1.03377095870745
H           -1.46406617978629       -0.39758622903349        1.32600029063883
H           -2.98019378915917       -1.16725461945007        0.87862155330396
H           -2.07871751606142       -1.82142536013448       -1.30127372338750
H           -1.12222238987360       -2.47355133173390        0.02820631729188
H           -0.37993525861402       -0.07758360631163       -1.70840811757541
H            0.28432746417779       -1.70106558029872       -1.82138047371178
H            1.17919646240795       -1.47893258121300        0.50839214827498
H            0.58368319283380        0.18277568164846        0.55236572250696
H            2.01257742154121        0.77728338947616       -1.36980394593078
H            2.55924656427310       -0.89324626610789       -1.49809515525764
H            3.56662571520395       -0.72190552909156        0.78637055853212
H            4.27948730159625        0.36791521648507       -0.40195792110152
H            2.28654267794791        1.14513106263954        1.77679498090215
H            2.84544400077713        2.23434760582616        0.50509104783771
H            3.98783713564790        1.58650643300768        1.68279948963353
29
 energy: -29.484374769348 gnorm: 0.000925588903 xtb: 6.6.1 (8d0f1dd)
C           -3.43406370971085        1.50059662222760        0.81886228436040
C           -2.60067691489230        0.67267937560775       -0.15298775601259
C           -2.11379291413583       -0.62602168580985        0.48505617950107
C           -1.38575679749170       -1.54875374050257       -0.49442176078566
C           -0.12440149973848       -0.95700880781988       -1.12582387562549
C            0.95524764907369       -0.59740004076173       -0.10770280625026
C            2.23553778886116       -0.12792642767296       -0.79521450187523
C            3.37840167458749        0.16019658515719        0.17843292901023
C            3.10992080905465        1.35431059648463        1.08821752081002
H           -3.76717917565484        2.42265356185125        0.34791765717174
H           -2.84874411719421        1.75718081349193        1.69949671706497
H           -4.31103989965179        0.94386791700183        1.14261131551643
H           -1.74594463414776        1.26697681525746       -0.47951144297532
H           -3.20001325042917        0.43630170472837       -1.03539216386995
H           -1.46275279857991       -0.39422105682060        1.32984577087686
H           -2.97742068286491       -1.16636906026240        0.88203417454374
H           -2.07776240649492       -1.82112588444935       -1.29560734737461
H           -1.11430706876748       -2.46770221389970        0.03160941737478
H           -0.38278619989065       -0.07057673148935       -1.70781193580160
H            0.28286910961544       -1.69324317820226       -1.82430995645373
H            1.17573117908747       -1.47254635893227        0.50867884384960
H            0.58770592545512        0.19180824511139        0.54773182732028
H            2.02207428707744        0.77249212241433       -1.37677593409487
H            2.56118027939786       -0.90104484755130       -1.49634596323881