 Entering Gaussian System
 *********************************************
 Gaussian 98:
 frequency output generated by the xtb code
 *********************************************
                         Standard orientation:
 --------------------------------------------------------------------
  Center     Atomic     Atomic              Coordinates (Angstroms)
  Number     Number      Type              X           Y           Z
 --------------------------------------------------------------------
    1          6             0       -1.937513   -0.134948   -0.000419
    2          6             0       -0.561101    0.517613    0.000530
    3          6             0        0.561139   -0.517624    0.000539
    4          6             0        1.937491    0.135062   -0.000397
    5          1             0       -2.062663   -0.760681   -0.881694
    6          1             0       -2.064737   -0.759082    0.881689
    7          1             0       -2.720271    0.620206   -0.002035
    8          1             0       -0.461240    1.155495   -0.880905
    9          1             0       -0.462070    1.154720    0.882608
   10          1             0        0.461352   -1.155497   -0.880907
   11          1             0        0.462111   -1.154750    0.882606
   12          1             0        2.063807    0.760891    0.880640
   13          1             0        2.720347   -0.619992    0.000149
   14          1             0        2.063385    0.759135   -0.882740
 --------------------------------------------------------------------
     1 basis functions        1 primitive gaussians
     1 alpha electrons        1 beta electrons
 
 Harmonic frequencies (cm**-1), IR intensities (km*mol⁻¹),
 Raman scattering activities (A**4/amu), Raman depolarization ratios,
 reduced masses (AMU), force constants (mDyne/A) and normal coordinates:
                      1                      2                      3
                        a                      a                      a 
 Frequencies --   108.4009               214.0374               246.2366
 Red. masses --     6.8400                 1.5195                 2.2641
 Frc consts  --     0.0000                 0.0000                 0.0000
 IR Inten    --     0.0148                 0.0221                 0.0000
 Raman Activ --     0.0000                 0.0000                 0.0000
 Depolar     --     0.0000                 0.0000                 0.0000
 Atom AN      X      Y      Z        X      Y      Z        X      Y      Z
   1   6     0.00   0.00  -0.35    -0.00   0.00  -0.10     0.00  -0.00  -0.01
   2   6    -0.00  -0.00   0.38     0.00  -0.00   0.12    -0.00   0.00  -0.24
   3   6     0.00  -0.00   0.38     0.00  -0.00   0.12    -0.00   0.00   0.24
   4   6    -0.00  -0.00  -0.35    -0.00   0.00  -0.10     0.00  -0.00   0.01
   5   1     0.07   0.14  -0.21     0.19  -0.29   0.15    -0.17   0.26  -0.16
   6   1    -0.07  -0.14  -0.21    -0.19   0.29   0.15     0.17  -0.26  -0.16
   7   1     0.00   0.00  -0.05     0.00  -0.00  -0.44    -0.00  -0.00   0.37
   8   1     0.08   0.09   0.18     0.03  -0.00   0.04     0.00  -0.10  -0.14
   9   1    -0.08  -0.09   0.18    -0.03  -0.00   0.04    -0.00   0.10  -0.14
  10   1    -0.08  -0.09   0.18    -0.03   0.00   0.04     0.00  -0.10   0.14
  11   1     0.08   0.09   0.18     0.03  -0.00   0.04    -0.00   0.10   0.14
  12   1     0.07   0.14  -0.21     0.19  -0.29   0.15     0.17  -0.26   0.16
  13   1     0.00   0.00  -0.05    -0.00  -0.00  -0.44    -0.00  -0.00  -0.37
  14   1    -0.07  -0.14  -0.21    -0.19   0.29   0.15    -0.17   0.26   0.16
                      4                      5                      6
                        a                      a                      a 
 Frequencies --   265.2952               427.0615               776.5725
 Red. masses --     7.7874                 8.7958                 1.7357
 Frc consts  --     0.0000                 0.0000                 0.0000
 IR Inten    --     0.4111                 0.0000                 9.6969
 Raman Activ --     0.0000                 0.0000                 0.0000
 Depolar     --     0.0000                 0.0000                 0.0000
 Atom AN      X      Y      Z        X      Y      Z        X      Y      Z
   1   6    -0.16   0.32   0.00     0.49  -0.03   0.00     0.00   0.00  -0.02
   2   6     0.17  -0.39  -0.00     0.26   0.21   0.00     0.00   0.00  -0.18
   3   6     0.17  -0.39   0.00    -0.26  -0.21  -0.00     0.00  -0.00  -0.18
   4   6    -0.16   0.32   0.00    -0.49   0.03   0.00    -0.00  -0.00  -0.02
   5   1    -0.16   0.12  -0.00     0.22  -0.03   0.00    -0.15  -0.10   0.09
   6   1    -0.16   0.12   0.00     0.22  -0.03  -0.00     0.15   0.10   0.09
   7   1     0.09   0.24   0.00     0.04  -0.11  -0.00    -0.00  -0.00   0.06
   8   1     0.10  -0.12   0.00     0.11   0.05  -0.00     0.01   0.37   0.23
   9   1     0.10  -0.11  -0.00     0.11   0.05   0.00    -0.01  -0.37   0.23
  10   1     0.10  -0.12  -0.00    -0.11  -0.05  -0.00    -0.01  -0.37   0.23
  11   1     0.10  -0.11   0.00    -0.11  -0.05   0.00     0.01   0.37   0.23
  12   1    -0.16   0.12  -0.00    -0.22   0.03  -0.00    -0.15  -0.10   0.09
  13   1     0.09   0.24  -0.00    -0.04   0.11  -0.00     0.00   0.00   0.06
  14   1    -0.16   0.12   0.00    -0.22   0.03   0.00     0.15   0.10   0.09
                      7                      8                      9
                        a                      a                      a 
 Frequencies --   847.5345               893.6034               967.7987
 Red. masses --     2.2227                 6.5179                 1.9962
 Frc consts  --     0.0000                 0.0000                 0.0000
 IR Inten    --     0.0000                 0.0000                 2.4196
 Raman Activ --     0.0000                 0.0000                 0.0000
 Depolar     --     0.0000                 0.0000                 0.0000
 Atom AN      X      Y      Z        X      Y      Z        X      Y      Z
   1   6     0.00   0.00   0.11     0.29  -0.07   0.00    -0.00   0.00   0.18
   2   6    -0.00  -0.00   0.21     0.11  -0.38  -0.00     0.00  -0.00  -0.11
   3   6    -0.00  -0.00  -0.21    -0.11   0.38  -0.00     0.00   0.00  -0.11
   4   6    -0.00  -0.00  -0.11    -0.29   0.07   0.00    -0.00   0.00   0.18
   5   1     0.28   0.15  -0.12    -0.14   0.05  -0.01     0.26   0.14  -0.09
   6   1    -0.28  -0.15  -0.12    -0.14   0.05   0.01    -0.26  -0.14  -0.09
   7   1     0.00   0.00  -0.14     0.35   0.26   0.00     0.00  -0.00  -0.13
   8   1    -0.19  -0.22  -0.13    -0.03  -0.09   0.00    -0.32   0.14   0.04
   9   1     0.19   0.22  -0.13    -0.03  -0.09  -0.00     0.32  -0.14   0.04
  10   1    -0.19  -0.22   0.13     0.03   0.09   0.00     0.32  -0.14   0.04
  11   1     0.19   0.22   0.13     0.03   0.09  -0.00    -0.32   0.14   0.04
  12   1    -0.28  -0.15   0.12     0.14  -0.05   0.01     0.26   0.14  -0.09
  13   1    -0.00  -0.00   0.14    -0.35  -0.26   0.00    -0.00  -0.00  -0.13
  14   1     0.28   0.15   0.12     0.14  -0.05  -0.01    -0.26  -0.14  -0.09
                     10                     11                     12
                        a                      a                      a 
 Frequencies --  1002.5808              1075.5829              1110.9373
 Red. masses --     2.8375                 9.9907                 8.1517
 Frc consts  --     0.0000                 0.0000                 0.0000
 IR Inten    --    11.9551                 0.4694                 0.0000
 Raman Activ --     0.0000                 0.0000                 0.0000
 Depolar     --     0.0000                 0.0000                 0.0000
 Atom AN      X      Y      Z        X      Y      Z        X      Y      Z
   1   6    -0.18   0.21  -0.00     0.36   0.23   0.00    -0.25  -0.25  -0.00
   2   6     0.03  -0.08   0.00    -0.41  -0.23  -0.00     0.45   0.06   0.00
   3   6     0.03  -0.08   0.00    -0.41  -0.23   0.00    -0.44  -0.06   0.00
   4   6    -0.18   0.21  -0.00     0.36   0.23  -0.00     0.25   0.25  -0.00
   5   1     0.24  -0.04   0.02     0.16   0.05  -0.00    -0.15  -0.05  -0.00
   6   1     0.24  -0.04  -0.02     0.16   0.05   0.00    -0.15  -0.05   0.00
   7   1    -0.37  -0.28  -0.00     0.06   0.02  -0.00     0.00   0.01   0.00
   8   1     0.20  -0.05   0.00    -0.10  -0.07  -0.00     0.25  -0.01  -0.00
   9   1     0.20  -0.05  -0.00    -0.10  -0.07   0.00     0.25  -0.01   0.00
  10   1     0.20  -0.05  -0.00    -0.10  -0.07   0.00    -0.25   0.01  -0.00
  11   1     0.20  -0.05   0.00    -0.10  -0.07  -0.00    -0.25   0.01   0.00
  12   1     0.24  -0.04   0.02     0.16   0.05  -0.00     0.15   0.05   0.00
  13   1    -0.36  -0.28   0.00     0.06   0.02  -0.00    -0.00  -0.01   0.00
  14   1     0.24  -0.04  -0.02     0.16   0.05   0.00     0.15   0.05  -0.00
                     13                     14                     15
                        a                      a                      a 
 Frequencies --  1164.5134              1202.1581              1257.8550
 Red. masses --     7.2267                 6.0203                 3.3985
 Frc consts  --     0.0000                 0.0000                 0.0000
 IR Inten    --     0.0000                 0.0000                 0.5482
 Raman Activ --     0.0000                 0.0000                 0.0000
 Depolar     --     0.0000                 0.0000                 0.0000
 Atom AN      X      Y      Z        X      Y      Z        X      Y      Z
   1   6     0.07  -0.21   0.00     0.00  -0.00  -0.27    -0.00   0.00   0.25
   2   6    -0.11   0.47  -0.00    -0.00   0.00   0.40     0.00  -0.00  -0.21
   3   6     0.11  -0.47  -0.00    -0.00  -0.00  -0.40    -0.00   0.00  -0.21
   4   6    -0.07   0.21  -0.00     0.00   0.00   0.27     0.00   0.00   0.26
   5   1    -0.19   0.03  -0.02    -0.22  -0.13   0.07     0.18   0.12  -0.05
   6   1    -0.19   0.03   0.02     0.22   0.13   0.07    -0.18  -0.12  -0.05
   7   1     0.21   0.16   0.00    -0.00   0.00   0.11     0.00  -0.00  -0.10
   8   1    -0.14   0.13  -0.00    -0.06  -0.22  -0.07     0.37   0.05   0.03
   9   1    -0.14   0.13   0.00     0.06   0.22  -0.07    -0.37  -0.05   0.03
  10   1     0.14  -0.13  -0.00    -0.06  -0.22   0.07    -0.37  -0.05   0.03
  11   1     0.14  -0.13   0.00     0.06   0.22   0.07     0.37   0.05   0.03
  12   1     0.19  -0.03   0.02     0.22   0.13  -0.07     0.18   0.12  -0.05
  13   1    -0.21  -0.16   0.00     0.00  -0.00  -0.11     0.00   0.00  -0.10
  14   1     0.19  -0.03  -0.02    -0.22  -0.13  -0.07    -0.18  -0.12  -0.05
                     16                     17                     18
                        a                      a                      a 
 Frequencies --  1285.5524              1304.3300              1372.4638
 Red. masses --     1.7669                 3.8626                 5.1941
 Frc consts  --     0.0000                 0.0000                 0.0000
 IR Inten    --     0.0000                 2.5180                 0.0000
 Raman Activ --     0.0000                 0.0000                 0.0000
 Depolar     --     0.0000                 0.0000                 0.0000
 Atom AN      X      Y      Z        X      Y      Z        X      Y      Z
   1   6    -0.00   0.00   0.11    -0.04   0.15  -0.00     0.04  -0.08   0.00
   2   6     0.00  -0.00   0.15     0.30  -0.13   0.00    -0.43   0.03  -0.00
   3   6     0.00   0.00  -0.15     0.30  -0.13   0.00     0.43  -0.03  -0.00
   4   6    -0.00   0.00  -0.10    -0.04   0.15   0.00    -0.04   0.08   0.00
   5   1     0.07   0.04  -0.01     0.03  -0.03   0.04     0.02   0.05  -0.05
   6   1    -0.07  -0.04  -0.01     0.03  -0.03  -0.04     0.02   0.05   0.05
   7   1    -0.00  -0.00  -0.01    -0.16  -0.12  -0.00     0.10   0.08   0.00
   8   1     0.45  -0.15  -0.02    -0.40   0.05   0.01     0.37  -0.04   0.02
   9   1    -0.45   0.15  -0.02    -0.40   0.05  -0.01     0.37  -0.04  -0.02
  10   1     0.45  -0.15   0.02    -0.40   0.05  -0.01    -0.37   0.04   0.02
  11   1    -0.45   0.15   0.02    -0.40   0.05   0.01    -0.37   0.04  -0.02
  12   1    -0.07  -0.04   0.01     0.03  -0.03   0.04    -0.02  -0.05   0.05
  13   1    -0.00  -0.00   0.01    -0.16  -0.12   0.00    -0.10  -0.08   0.00
  14   1     0.07   0.04   0.01     0.03  -0.03  -0.04    -0.02  -0.05  -0.05
                     19                     20                     21
                        a                      a                      a 
 Frequencies --  1415.1044              1418.5450              1497.0648
 Red. masses --     3.2683                 3.1363                 1.8738
 Frc consts  --     0.0000                 0.0000                 0.0000
 IR Inten    --     0.0000                 1.6461                 0.6155
 Raman Activ --     0.0000                 0.0000                 0.0000
 Depolar     --     0.0000                 0.0000                 0.0000
 Atom AN      X      Y      Z        X      Y      Z        X      Y      Z
   1   6    -0.29  -0.12  -0.00     0.29   0.11   0.00     0.00   0.06   0.00
   2   6     0.08  -0.00  -0.00    -0.05   0.02   0.00    -0.06  -0.18  -0.00
   3   6    -0.08   0.00   0.00    -0.05   0.02   0.00    -0.06  -0.18   0.00
   4   6     0.29   0.12  -0.00     0.29   0.11  -0.00     0.00   0.06  -0.00
   5   1     0.34   0.06  -0.10    -0.35  -0.06   0.10    -0.00  -0.15   0.11
   6   1     0.34   0.06   0.10    -0.35  -0.06  -0.10    -0.00  -0.15  -0.11
   7   1     0.24   0.27  -0.00    -0.24  -0.26   0.00     0.05   0.05  -0.00
   8   1    -0.06   0.04   0.02     0.05  -0.03  -0.02     0.07   0.34   0.26
   9   1    -0.05   0.04  -0.02     0.05  -0.03   0.02     0.07   0.34  -0.26
  10   1     0.05  -0.04   0.02     0.05  -0.03   0.02     0.07   0.34  -0.26
  11   1     0.06  -0.04  -0.02     0.05  -0.03  -0.02     0.07   0.34   0.26
  12   1    -0.34  -0.06   0.10    -0.35  -0.06   0.10    -0.00  -0.15   0.11
  13   1    -0.24  -0.27   0.00    -0.24  -0.26   0.00     0.05   0.05   0.00
  14   1    -0.34  -0.06  -0.10    -0.35  -0.06  -0.10    -0.00  -0.15  -0.11
                     22                     23                     24
                        a                      a                      a 
 Frequencies --  1499.8183              1505.1973              1505.3864
 Red. masses --     1.8265                 1.5579                 1.5053
 Frc consts  --     0.0000                 0.0000                 0.0000
 IR Inten    --     0.0000                 0.0003                 4.7298
 Raman Activ --     0.0000                 0.0000                 0.0000
 Depolar     --     0.0000                 0.0000                 0.0000
 Atom AN      X      Y      Z        X      Y      Z        X      Y      Z
   1   6    -0.02  -0.01  -0.00     0.00   0.00  -0.16    -0.00   0.00   0.15
   2   6     0.01   0.19   0.00    -0.00  -0.00  -0.03    -0.00  -0.00   0.03
   3   6    -0.01  -0.19   0.00     0.00   0.00   0.03     0.00  -0.00   0.03
   4   6     0.02   0.01   0.00    -0.00   0.00   0.15     0.00  -0.00   0.15
   5   1     0.03   0.03  -0.02     0.29  -0.15   0.06    -0.29   0.15  -0.05
   6   1     0.03   0.03   0.02    -0.29   0.15   0.05     0.29  -0.15  -0.05
   7   1     0.01   0.02   0.00    -0.00   0.00   0.51     0.00  -0.00  -0.50
   8   1    -0.04  -0.38  -0.28     0.00   0.01   0.00    -0.03  -0.01   0.00
   9   1    -0.04  -0.38   0.28    -0.00  -0.01  -0.00     0.03   0.01   0.00
  10   1     0.04   0.38  -0.29     0.00   0.01  -0.00     0.03   0.01   0.00
  11   1     0.04   0.38   0.28    -0.00  -0.01  -0.00    -0.03  -0.01   0.00
  12   1    -0.03  -0.03   0.02    -0.29   0.15  -0.06    -0.29   0.15  -0.06
  13   1    -0.01  -0.02  -0.00    -0.00  -0.00  -0.50    -0.00  -0.00  -0.51
  14   1    -0.03  -0.03  -0.02     0.29  -0.15  -0.06     0.29  -0.15  -0.05
                     25                     26                     27
                        a                      a                      a 
 Frequencies --  1507.8780              1508.7312              2958.2780
 Red. masses --     1.7089                 1.5928                 1.9238
 Frc consts  --     0.0000                 0.0000                 0.0000
 IR Inten    --     2.3970                 0.0000                 0.0002
 Raman Activ --     0.0000                 0.0000                 0.0000
 Depolar     --     0.0000                 0.0000                 0.0000
 Atom AN      X      Y      Z        X      Y      Z        X      Y      Z
   1   6     0.06  -0.13  -0.00     0.05  -0.14   0.00    -0.00   0.00  -0.01
   2   6     0.00  -0.10  -0.00     0.04  -0.05   0.00    -0.00  -0.00   0.20
   3   6     0.00  -0.10   0.00    -0.04   0.05   0.00    -0.00  -0.00  -0.20
   4   6     0.06  -0.13   0.00    -0.05   0.14   0.00    -0.00   0.00   0.01
   5   1    -0.04   0.34  -0.24    -0.04   0.37  -0.26     0.01   0.03   0.03
   6   1    -0.04   0.34   0.24    -0.04   0.37   0.26    -0.01  -0.03   0.03
   7   1    -0.14  -0.16   0.00    -0.16  -0.18  -0.00     0.00  -0.00  -0.00
   8   1     0.01   0.15   0.11    -0.03   0.02   0.02     0.04   0.29  -0.38
   9   1     0.01   0.15  -0.11    -0.03   0.02  -0.02    -0.04  -0.29  -0.38
  10   1     0.01   0.15  -0.12     0.03  -0.02   0.02     0.04   0.29   0.38
  11   1     0.01   0.15   0.11     0.03  -0.02  -0.02    -0.04  -0.29   0.38
  12   1    -0.04   0.34  -0.24     0.04  -0.37   0.26    -0.01  -0.03  -0.03
  13   1    -0.14  -0.16   0.00     0.16   0.18  -0.00     0.00  -0.00   0.00
  14   1    -0.04   0.34   0.24     0.04  -0.37  -0.26     0.01   0.03  -0.03
                     28                     29                     30
                        a                      a                      a 
 Frequencies --  2971.7021              2976.2060              2982.4105
 Red. masses --     2.0187                 1.4481                 1.5156
 Frc consts  --     0.0000                 0.0000                 0.0000
 IR Inten    --    80.8558                 0.0064                62.0488
 Raman Activ --     0.0000                 0.0000                 0.0000
 Depolar     --     0.0000                 0.0000                 0.0000
 Atom AN      X      Y      Z        X      Y      Z        X      Y      Z
   1   6     0.00  -0.00   0.03    -0.01   0.00   0.00    -0.01   0.03   0.00
   2   6     0.00   0.00  -0.21    -0.02  -0.14  -0.00    -0.02  -0.15  -0.00
   3   6    -0.00  -0.00  -0.21     0.02   0.14  -0.00    -0.02  -0.15   0.00
   4   6    -0.00   0.00   0.03     0.01  -0.00   0.00    -0.01   0.03   0.00
   5   1    -0.01  -0.05  -0.06    -0.00  -0.01  -0.01    -0.01  -0.04  -0.06
   6   1     0.01   0.05  -0.06    -0.00  -0.01   0.01    -0.01  -0.04   0.06
   7   1    -0.00   0.00   0.01     0.02  -0.02   0.00     0.05  -0.05   0.00
   8   1    -0.05  -0.28   0.38     0.04   0.26  -0.41     0.04   0.26  -0.40
   9   1     0.04   0.28   0.37     0.04   0.27   0.41     0.04   0.26   0.40
  10   1     0.05   0.28   0.38    -0.04  -0.26  -0.41     0.04   0.26   0.40
  11   1    -0.04  -0.28   0.37    -0.04  -0.27   0.41     0.04   0.26  -0.40
  12   1    -0.01  -0.05  -0.06     0.00   0.01   0.01    -0.01  -0.04  -0.06
  13   1     0.00  -0.00   0.01    -0.02   0.02   0.00     0.05  -0.05   0.00
  14   1     0.01   0.05  -0.06     0.00   0.01  -0.01    -0.01  -0.04   0.06
                     31                     32                     33
                        a                      a                      a 
 Frequencies --  3027.7446              3029.7541              3030.1796
 Red. masses --     1.9557                 1.9604                 1.9102
 Frc consts  --     0.0000                 0.0000                 0.0000
 IR Inten    --     0.0009               119.1629                 0.0514
 Raman Activ --     0.0000                 0.0000                 0.0000
 Depolar     --     0.0000                 0.0000                 0.0000
 Atom AN      X      Y      Z        X      Y      Z        X      Y      Z
   1   6    -0.00   0.00   0.21     0.00  -0.00  -0.20    -0.06   0.19  -0.00
   2   6     0.00   0.00   0.02    -0.00  -0.00  -0.04     0.00   0.01  -0.00
   3   6    -0.00   0.00  -0.02    -0.00   0.00  -0.04    -0.00  -0.01  -0.00
   4   6    -0.00  -0.00  -0.21    -0.00   0.00  -0.20     0.06  -0.19  -0.00
   5   1    -0.05  -0.29  -0.38     0.05   0.29   0.38    -0.05  -0.18  -0.30
   6   1     0.05   0.28  -0.38    -0.05  -0.28   0.37    -0.05  -0.19   0.32
   7   1     0.00  -0.00   0.03    -0.01   0.01  -0.03     0.32  -0.30  -0.00
   8   1     0.00   0.02  -0.03    -0.01  -0.05   0.06    -0.00  -0.01   0.02
   9   1    -0.00  -0.02  -0.03     0.01   0.05   0.06    -0.00  -0.01  -0.02
  10   1     0.00   0.02   0.03     0.01   0.05   0.06     0.00   0.01   0.02
  11   1    -0.00  -0.02   0.03    -0.01  -0.05   0.06     0.00   0.01  -0.02
  12   1     0.05   0.28   0.38     0.05   0.28   0.37     0.05   0.19   0.32
  13   1     0.00  -0.00  -0.03     0.01  -0.01  -0.03    -0.32   0.30  -0.00
  14   1    -0.05  -0.28   0.38    -0.05  -0.29   0.38     0.05   0.18  -0.30
                     34                     35                     36
                        a                      a                      a 
 Frequencies --  3032.7737              3036.9015              3037.6126
 Red. masses --     1.9110                 1.2771                 1.2851
 Frc consts  --     0.0000                 0.0000                 0.0000
 IR Inten    --   114.2538                60.6723                 0.0002
 Raman Activ --     0.0000                 0.0000                 0.0000
 Depolar     --     0.0000                 0.0000                 0.0000
 Atom AN      X      Y      Z        X      Y      Z        X      Y      Z
   1   6     0.07  -0.19   0.00    -0.11  -0.00   0.00    -0.11   0.00   0.00
   2   6    -0.00  -0.03   0.00    -0.00  -0.01   0.00    -0.00   0.00   0.00
   3   6    -0.00  -0.03   0.00    -0.00  -0.01   0.00     0.00  -0.00   0.00
   4   6     0.07  -0.19   0.00    -0.11  -0.00   0.00     0.11  -0.00   0.00
   5   1     0.05   0.18   0.29     0.02   0.19   0.27     0.02   0.19   0.27
   6   1     0.05   0.18  -0.30     0.02   0.19  -0.28     0.02   0.19  -0.27
   7   1    -0.32   0.31  -0.00     0.35  -0.37   0.00     0.36  -0.38   0.00
   8   1     0.01   0.05  -0.07     0.00   0.01  -0.01    -0.00  -0.00   0.00
   9   1     0.01   0.05   0.07     0.00   0.01   0.01    -0.00  -0.00  -0.00
  10   1     0.01   0.05   0.07     0.00   0.01   0.01     0.00   0.00   0.00
  11   1     0.01   0.05  -0.07     0.00   0.01  -0.01     0.00   0.00  -0.00
  12   1     0.05   0.18   0.30     0.02   0.19   0.27    -0.02  -0.19  -0.27
  13   1    -0.33   0.31  -0.00     0.35  -0.37   0.00    -0.36   0.38  -0.00
  14   1     0.05   0.18  -0.30     0.02   0.19  -0.28    -0.02  -0.19   0.27
