      -----------------------------------------------------------      
     |                   =====================                   |     
     |                           x T B                           |     
     |                   =====================                   |     
     |                         S. Grimme                         |     
     |          Mulliken Center for Theoretical Chemistry        |     
     |                    University of Bonn                     |     
      -----------------------------------------------------------      

   * xtb version 6.6.1 (8d0f1dd) compiled by 'stahn@M-Bot' on 2023-08-01

   xtb is free software: you can redistribute it and/or modify it under
   the terms of the GNU Lesser General Public License as published by
   the Free Software Foundation, either version 3 of the License, or
   (at your option) any later version.
   
   xtb is distributed in the hope that it will be useful,
   but WITHOUT ANY WARRANTY; without even the implied warranty of
   MERCHANTABILITY or FITNESS FOR A PARTICULAR PURPOSE.  See the
   GNU Lesser General Public License for more details.
   
   Cite this work as:
   * C. Bannwarth, E. Caldeweyher, S. Ehlert, A. Hansen, P. Pracht,
     J. Seibert, S. Spicher, S. Grimme, WIREs Comput. Mol. Sci., 2020, 11,
     e01493. DOI: 10.1002/wcms.1493
   
   for GFN2-xTB:
   * C. Bannwarth, S. Ehlert and S. Grimme., J. Chem. Theory Comput., 2019,
     15, 1652-1671. DOI: 10.1021/acs.jctc.8b01176
   for GFN1-xTB:
   * S. Grimme, C. Bannwarth, P. Shushkov, J. Chem. Theory Comput., 2017,
     13, 1989-2009. DOI: 10.1021/acs.jctc.7b00118
   for GFN0-xTB:
   * P. Pracht, E. Caldeweyher, S. Ehlert, S. Grimme, ChemRxiv, 2019, preprint.
     DOI: 10.26434/chemrxiv.8326202.v1
   for GFN-FF:
   * S. Spicher and S. Grimme, Angew. Chem. Int. Ed., 2020, 59, 15665-15673.
     DOI: 10.1002/anie.202004239
   
   for ALPB and GBSA implicit solvation:
   * S. Ehlert, M. Stahn, S. Spicher, S. Grimme, J. Chem. Theory Comput.,
     2021, 17, 4250-4261. DOI: 10.1021/acs.jctc.1c00471
   
   for DFT-D4:
   * E. Caldeweyher, C. Bannwarth and S. Grimme, J. Chem. Phys., 2017,
     147, 034112. DOI: 10.1063/1.4993215
   * E. Caldeweyher, S. Ehlert, A. Hansen, H. Neugebauer, S. Spicher,
     C. Bannwarth and S. Grimme, J. Chem. Phys., 2019, 150, 154122.
     DOI: 10.1063/1.5090222
   * E. Caldeweyher, J.-M. Mewes, S. Ehlert and S. Grimme, Phys. Chem. Chem. Phys.
     2020, 22, 8499-8512. DOI: 10.1039/D0CP00502A
   
   for sTDA-xTB:
   * S. Grimme and C. Bannwarth, J. Chem. Phys., 2016, 145, 054103.
     DOI: 10.1063/1.4959605
   
   in the mass-spec context:
   * V. Asgeirsson, C. Bauer and S. Grimme, Chem. Sci., 2017, 8, 4879.
     DOI: 10.1039/c7sc00601b
   * J. Koopman and S. Grimme, ACS Omega 2019, 4, 12, 15120-15133.
     DOI: 10.1021/acsomega.9b02011
   
   for metadynamics refer to:
   * S. Grimme, J. Chem. Theory Comput., 2019, 155, 2847-2862
     DOI: 10.1021/acs.jctc.9b00143
   
   for SPH calculations refer to:
   * S. Spicher and S. Grimme, J. Chem. Theory Comput., 2021, 17, 1701-1714
     DOI: 10.1021/acs.jctc.0c01306
   
   with help from (in alphabetical order)
   P. Atkinson, C. Bannwarth, F. Bohle, G. Brandenburg, E. Caldeweyher
   M. Checinski, S. Dohm, S. Ehlert, S. Ehrlich, I. Gerasimov, C. Hölzer
   A. Katbashev, J. Koopman, C. Lavigne, S. Lehtola, F. März, M. Müller,
   F. Musil, H. Neugebauer, J. Pisarek, C. Plett, P. Pracht, F. Pultar,
   J. Seibert, P. Shushkov, S. Spicher, M. Stahn, M. Steiner, T. Strunk,
   J. Stückrath, T. Rose, and J. Unsleber
   
 * started run on 2024/04/17 at 11:32:25.634     

           -------------------------------------------------
          |                Calculation Setup                |
           -------------------------------------------------

          program call               : xtb 1.xyz --gfn 2 --ohess -P 4
          coordinate file            : 1.xyz
          omp threads                :                     4

   ID    Z sym.   atoms
    1    6 C      1-4
    2    1 H      5-14

           -------------------------------------------------
          |                 G F N 2 - x T B                 |
           -------------------------------------------------

        Reference                      10.1021/acs.jctc.8b01176
      * Hamiltonian:
        H0-scaling (s, p, d)           1.850000    2.230000    2.230000
        zeta-weighting                 0.500000
      * Dispersion:
        s8                             2.700000
        a1                             0.520000
        a2                             5.000000
        s9                             5.000000
      * Repulsion:
        kExp                           1.500000    1.000000
        rExp                           1.000000
      * Coulomb:
        alpha                          2.000000
        third order                    shell-resolved
        anisotropic                    true
        a3                             3.000000
        a5                             4.000000
        cn-shift                       1.200000
        cn-exp                         4.000000
        max-rad                        5.000000


          ...................................................
          :                      SETUP                      :
          :.................................................:
          :  # basis functions                  26          :
          :  # atomic orbitals                  26          :
          :  # shells                           18          :
          :  # electrons                        26          :
          :  max. iterations                   250          :
          :  Hamiltonian                  GFN2-xTB          :
          :  restarted?                      false          :
          :  GBSA solvation                  false          :
          :  PC potential                    false          :
          :  electronic temp.          300.0000000     K    :
          :  accuracy                    1.0000000          :
          :  -> integral cutoff          0.2500000E+02      :
          :  -> integral neglect         0.1000000E-07      :
          :  -> SCF convergence          0.1000000E-05 Eh   :
          :  -> wf. convergence          0.1000000E-03 e    :
          :  Broyden damping             0.4000000          :
          ...................................................

 iter      E             dE          RMSdq      gap      omega  full diag
   1    -13.8285042 -0.138285E+02  0.258E+00   13.93       0.0  T
   2    -13.8686728 -0.401686E-01  0.136E+00   13.54       1.0  T
   3    -13.8691006 -0.427835E-03  0.730E-01   13.52       1.0  T
   4    -13.8692138 -0.113180E-03  0.923E-02   13.53       1.0  T
   5    -13.8692203 -0.654119E-05  0.517E-02   13.53       1.0  T
   6    -13.8692206 -0.299106E-06  0.178E-03   13.53      15.0  T
   7    -13.8692206 -0.408462E-08  0.724E-04   13.53      36.9  T
   8    -13.8692206 -0.451754E-09  0.115E-04   13.53     231.5  T

   *** convergence criteria satisfied after 8 iterations ***

         #    Occupation            Energy/Eh            Energy/eV
      -------------------------------------------------------------
         1        2.0000           -0.6170605             -16.7911
       ...           ...                  ...                  ...
         7        2.0000           -0.4892713             -13.3137
         8        2.0000           -0.4778504             -13.0030
         9        2.0000           -0.4547957             -12.3756
        10        2.0000           -0.4396299             -11.9629
        11        2.0000           -0.4383491             -11.9281
        12        2.0000           -0.4265933             -11.6082
        13        2.0000           -0.4173091             -11.3556 (HOMO)
        14                          0.0798454               2.1727 (LUMO)
        15                          0.1137909               3.0964
        16                          0.1263453               3.4380
        17                          0.1521875               4.1412
        18                          0.1588928               4.3237
       ...                                ...                  ...
        26                          0.2943514               8.0097
      -------------------------------------------------------------
                  HL-Gap            0.4971545 Eh           13.5283 eV
             Fermi-level           -0.1687319 Eh           -4.5914 eV

 SCC (total)                   0 d,  0 h,  0 min,  0.024 sec
 SCC setup                      ...        0 min,  0.001 sec (  3.719%)
 Dispersion                     ...        0 min,  0.000 sec (  0.410%)
 classical contributions        ...        0 min,  0.000 sec (  0.051%)
 integral evaluation            ...        0 min,  0.000 sec (  1.226%)
 iterations                     ...        0 min,  0.021 sec ( 88.651%)
 molecular gradient             ...        0 min,  0.001 sec (  2.393%)
 printout                       ...        0 min,  0.001 sec (  3.413%)

         :::::::::::::::::::::::::::::::::::::::::::::::::::::
         ::                     SUMMARY                     ::
         :::::::::::::::::::::::::::::::::::::::::::::::::::::
         :: total energy             -13.664353786867 Eh    ::
         :: gradient norm              0.019510336355 Eh/a0 ::
         :: HOMO-LUMO gap             13.528262798302 eV    ::
         ::.................................................::
         :: SCC energy               -13.869220644637 Eh    ::
         :: -> isotropic ES            0.002826219094 Eh    ::
         :: -> anisotropic ES          0.005124740361 Eh    ::
         :: -> anisotropic XC          0.008981748443 Eh    ::
         :: -> dispersion             -0.006037104135 Eh    ::
         :: repulsion energy           0.204863002700 Eh    ::
         :: add. restraining           0.000000000000 Eh    ::
         :: total charge              -0.000000000000 e     ::
         :::::::::::::::::::::::::::::::::::::::::::::::::::::

      ----------------------------------------------------------- 
     |                   =====================                   |
     |                        A N C O P T                        |
     |                   =====================                   |
     |               Approximate Normal Coordinate               |
     |                Rational Function Optimizer                |
      ----------------------------------------------------------- 

          ...................................................
          :                      SETUP                      :
          :.................................................:
          :   optimization level            normal          :
          :   max. optcycles                   200          :
          :   ANC micro-cycles                  20          :
          :   degrees of freedom                36          :
          :.................................................:
          :   RF solver                   davidson          :
          :   write xtbopt.log                true          :
          :   linear?                        false          :
          :   energy convergence         0.5000000E-05 Eh   :
          :   grad. convergence          0.1000000E-02 Eh/α :
          :   maxmium RF displ.          2.0000000          :
          :   Hlow (freq-cutoff)         0.2000000E-01      :
          :   Hmax (freq-cutoff)         5.0000000          :
          :   S6 in model hess.         70.0000000          :
          ...................................................

generating ANC from model Hessian ...
Using Lindh-Hessian (1995)
 Shifting diagonal of input Hessian by   1.405056497504139E-002
 Lowest  eigenvalues of input Hessian
    0.000000    0.000000    0.000000    0.000000    0.000000    0.000000
    0.020000    0.024857    0.025987    0.029711    0.034261    0.057325
    0.060630    0.065198    0.069524    0.070065    0.071599    0.080029
 Highest eigenvalues
    1.116525    1.130837    1.169674    1.216094    1.222129    1.307314
 

........................................................................
.............................. CYCLE    1 ..............................
........................................................................

 iter      E             dE          RMSdq      gap      omega  full diag
   1    -13.8692206 -0.138692E+02  0.204E-05   13.53       0.0  T
   2    -13.8692206 -0.255440E-11  0.780E-06   13.53    3425.3  T
   3    -13.8692206 -0.106581E-13  0.425E-06   13.53    6290.7  T
     SCC iter.                  ...        0 min,  0.001 sec
     gradient                   ...        0 min,  0.001 sec
 * total energy  :   -13.6643538 Eh     change       -0.7061018E-11 Eh
   gradient norm :     0.0195100 Eh/α   predicted     0.0000000E+00 (-100.00%)
   displ. norm   :     0.1112410 α      lambda       -0.1124022E-02
   maximum displ.:     0.0634874 α      in ANC's #14, #8, #10, ...

........................................................................
.............................. CYCLE    2 ..............................
........................................................................

 iter      E             dE          RMSdq      gap      omega  full diag
   1    -13.8735540 -0.138736E+02  0.161E-01   13.80       0.0  T
   2    -13.8735559 -0.189806E-05  0.925E-02   13.80       1.0  T
   3    -13.8735562 -0.281377E-06  0.417E-03   13.80       6.4  T
   4    -13.8735562 -0.375223E-08  0.144E-03   13.80      18.6  T
   5    -13.8735562  0.100773E-10  0.210E-04   13.80     127.3  T
   6    -13.8735562 -0.170200E-09  0.353E-05   13.80     756.5  T
     SCC iter.                  ...        0 min,  0.001 sec
     gradient                   ...        0 min,  0.001 sec
 * total energy  :   -13.6650496 Eh     change       -0.6958227E-03 Eh
   gradient norm :     0.0087361 Eh/α   predicted    -0.5689691E-03 ( -18.23%)
   displ. norm   :     0.0331234 α      lambda       -0.1357424E-03
   maximum displ.:     0.0236992 α      in ANC's #14, #5, #10, ...

........................................................................
.............................. CYCLE    3 ..............................
........................................................................

 iter      E             dE          RMSdq      gap      omega  full diag
   1    -13.8758826 -0.138759E+02  0.491E-02   13.82       0.0  T
   2    -13.8758837 -0.106681E-05  0.273E-02   13.82       1.0  T
   3    -13.8758837 -0.306146E-07  0.420E-03   13.82       6.4  T
   4    -13.8758837 -0.822474E-08  0.586E-04   13.82      45.6  T
   5    -13.8758837 -0.445938E-09  0.323E-04   13.82      82.9  T
     SCC iter.                  ...        0 min,  0.001 sec
     gradient                   ...        0 min,  0.001 sec
 * total energy  :   -13.6651241 Eh     change       -0.7451990E-04 Eh
   gradient norm :     0.0021855 Eh/α   predicted    -0.6794387E-04 (  -8.82%)
   displ. norm   :     0.0034354 α      lambda       -0.5635025E-05
   maximum displ.:     0.0019046 α      in ANC's #36, #5, #35, ...

........................................................................
.............................. CYCLE    4 ..............................
........................................................................

 iter      E             dE          RMSdq      gap      omega  full diag
   1    -13.8760959 -0.138761E+02  0.428E-03   13.81       0.0  T
   2    -13.8760959 -0.418898E-07  0.249E-03   13.81      10.7  T
   3    -13.8760959 -0.196431E-09  0.967E-04   13.81      27.6  T
   4    -13.8760959 -0.411919E-10  0.573E-05   13.81     466.4  T
     SCC iter.                  ...        0 min,  0.001 sec
     gradient                   ...        0 min,  0.001 sec
 * total energy  :   -13.6651275 Eh     change       -0.3343316E-05 Eh
   gradient norm :     0.0004362 Eh/α   predicted    -0.2816729E-05 ( -15.75%)
   displ. norm   :     0.0029101 α      lambda       -0.4555798E-06
   maximum displ.:     0.0019109 α      in ANC's #10, #8, #14, ...

   *** GEOMETRY OPTIMIZATION CONVERGED AFTER 4 ITERATIONS ***

------------------------------------------------------------------------
 total energy gain   :        -0.0007737 Eh       -0.4855 kcal/mol
 total RMSD          :         0.0380094 a0        0.0201 Å
 total power (kW/mol):        -0.5078280 (step) -146.6881 (real)
------------------------------------------------------------------------

 ANCopt (total)                0 d,  0 h,  0 min,  0.014 sec
 optimizer setup                ...        0 min,  0.001 sec (  8.818%)
 model hessian                  ...        0 min,  0.002 sec ( 15.121%)
 ANC generation                 ...        0 min,  0.000 sec (  3.338%)
 coordinate transformation      ...        0 min,  0.000 sec (  0.281%)
 single point calculation       ...        0 min,  0.008 sec ( 54.865%)
 optimization log               ...        0 min,  0.000 sec (  1.652%)
 hessian update                 ...        0 min,  0.000 sec (  0.207%)
 rational function              ...        0 min,  0.001 sec (  4.932%)

================
 final structure:
================
14
 xtb: 6.6.1 (8d0f1dd)
C           -1.93751213197670       -0.13495799389534       -0.00042598887868
C           -0.56110385634269        0.51760978509265        0.00052853678937
C            0.56114145533943       -0.51762057854740        0.00054008660509
C            1.93748995352666        0.13507168418186       -0.00039000364241
H           -2.06265581575264       -0.76068995271918       -0.88170231818076
H           -2.06473566474859       -0.75909382014069        0.88168043803291
H           -2.72027350112991        0.62019174706628       -0.00204300349609
H           -0.46124340609977        1.15549407117553       -0.88090455550247
H           -0.46207940359789        1.15471587878310        0.88260846812776
H            0.46136143838758       -1.15549260852214       -0.88090748152185
H            0.46211342813849       -1.15474891530490        0.88260565657369
H            2.06380007139562        0.76089978461387        0.88064849421733
H            2.72034970935171       -0.61997807426511        0.00015767660822
H            2.06338372350868        0.75914699248148       -0.88273100573210
           -------------------------------------------------
          |                Final Singlepoint                |
           -------------------------------------------------

          ...................................................
          :                      SETUP                      :
          :.................................................:
          :  # basis functions                  26          :
          :  # atomic orbitals                  26          :
          :  # shells                           18          :
          :  # electrons                        26          :
          :  max. iterations                   250          :
          :  Hamiltonian                  GFN2-xTB          :
          :  restarted?                      false          :
          :  GBSA solvation                  false          :
          :  PC potential                    false          :
          :  electronic temp.          300.0000000     K    :
          :  accuracy                    1.0000000          :
          :  -> integral cutoff          0.2500000E+02      :
          :  -> integral neglect         0.1000000E-07      :
          :  -> SCF convergence          0.1000000E-05 Eh   :
          :  -> wf. convergence          0.1000000E-03 e    :
          :  Broyden damping             0.4000000          :
          ...................................................

 iter      E             dE          RMSdq      gap      omega  full diag
   1    -13.8760959 -0.138761E+02  0.285E-05   13.81       0.0  T
   2    -13.8760959 -0.335731E-12  0.157E-05   13.81    1697.3  T
   3    -13.8760959 -0.817124E-13  0.175E-06   13.81   15283.6  T

   *** convergence criteria satisfied after 3 iterations ***

         #    Occupation            Energy/Eh            Energy/eV
      -------------------------------------------------------------
         1        2.0000           -0.6180075             -16.8168
       ...           ...                  ...                  ...
         7        2.0000           -0.4879074             -13.2766
         8        2.0000           -0.4790049             -13.0344
         9        2.0000           -0.4546562             -12.3718
        10        2.0000           -0.4394981             -11.9594
        11        2.0000           -0.4367632             -11.8849
        12        2.0000           -0.4257617             -11.5856
        13        2.0000           -0.4195550             -11.4167 (HOMO)
        14                          0.0879914               2.3944 (LUMO)
        15                          0.1268091               3.4507
        16                          0.1277627               3.4766
        17                          0.1527235               4.1558
        18                          0.1628981               4.4327
       ...                                ...                  ...
        26                          0.3115165               8.4768
      -------------------------------------------------------------
                  HL-Gap            0.5075464 Eh           13.8110 eV
             Fermi-level           -0.1657818 Eh           -4.5112 eV

 SCC (total)                   0 d,  0 h,  0 min,  0.003 sec
 SCC setup                      ...        0 min,  0.001 sec ( 24.009%)
 Dispersion                     ...        0 min,  0.000 sec (  0.869%)
 classical contributions        ...        0 min,  0.000 sec (  0.290%)
 integral evaluation            ...        0 min,  0.000 sec (  6.463%)
 iterations                     ...        0 min,  0.001 sec ( 25.389%)
 molecular gradient             ...        0 min,  0.001 sec ( 16.341%)
 printout                       ...        0 min,  0.001 sec ( 25.572%)

         :::::::::::::::::::::::::::::::::::::::::::::::::::::
         ::                     SUMMARY                     ::
         :::::::::::::::::::::::::::::::::::::::::::::::::::::
         :: total energy             -13.665127472753 Eh    ::
         :: gradient norm              0.000436165207 Eh/a0 ::
         :: HOMO-LUMO gap             13.811041270281 eV    ::
         ::.................................................::
         :: SCC energy               -13.876095911139 Eh    ::
         :: -> isotropic ES            0.002997538093 Eh    ::
         :: -> anisotropic ES          0.004906093982 Eh    ::
         :: -> anisotropic XC          0.009057912490 Eh    ::
         :: -> dispersion             -0.006049478541 Eh    ::
         :: repulsion energy           0.210964567660 Eh    ::
         :: add. restraining           0.000000000000 Eh    ::
         :: total charge               0.000000000000 e     ::
         :::::::::::::::::::::::::::::::::::::::::::::::::::::

           ------------------------------------------------- 
          |                Numerical Hessian                |
           ------------------------------------------------- 
step length          :   0.00500
SCC accuracy         :   0.30000
Hessian scale factor :   1.00000
frozen atoms in %    :   0.00000    0
RMS gradient         :   0.00044
estimated CPU  time      0.02 min
estimated wall time      0.00 min

writing file <hessian>.

 projected vibrational frequencies (cm⁻¹)
eigval :       -0.00    -0.00    -0.00     0.00     0.00     0.00
eigval :      108.40   214.04   246.24   265.30   427.06   776.57
eigval :      847.53   893.60   967.80  1002.58  1075.58  1110.94
eigval :     1164.51  1202.16  1257.86  1285.55  1304.33  1372.46
eigval :     1415.10  1418.54  1497.06  1499.82  1505.20  1505.39
eigval :     1507.88  1508.73  2958.28  2971.70  2976.21  2982.41
eigval :     3027.74  3029.75  3030.18  3032.77  3036.90  3037.61
           -------------------------------------------------
          |                Property Printout                |
           -------------------------------------------------

    * Orbital Energies and Occupations

         #    Occupation            Energy/Eh            Energy/eV
      -------------------------------------------------------------
         1        2.0000           -0.6180075             -16.8168
         2        2.0000           -0.5990135             -16.3000
         3        2.0000           -0.5679301             -15.4542
         4        2.0000           -0.5524007             -15.0316
         5        2.0000           -0.5138779             -13.9833
         6        2.0000           -0.4918715             -13.3845
         7        2.0000           -0.4879074             -13.2766
         8        2.0000           -0.4790049             -13.0344
         9        2.0000           -0.4546562             -12.3718
        10        2.0000           -0.4394981             -11.9594
        11        2.0000           -0.4367632             -11.8849
        12        2.0000           -0.4257616             -11.5856
        13        2.0000           -0.4195550             -11.4167 (HOMO)
        14                          0.0879914               2.3944 (LUMO)
        15                          0.1268091               3.4507
        16                          0.1277627               3.4766
        17                          0.1527235               4.1558
        18                          0.1628981               4.4327
        19                          0.1838290               5.0022
        20                          0.1937955               5.2734
        21                          0.1970604               5.3623
        22                          0.2247357               6.1154
        23                          0.2548776               6.9356
        24                          0.2646400               7.2012
       ...                                ...                  ...
        26                          0.3115165               8.4768
      -------------------------------------------------------------
                  HL-Gap            0.5075464 Eh           13.8110 eV
             Fermi-level           -0.1657818 Eh           -4.5112 eV

     #   Z          covCN         q      C6AA      α(0)
     1   6 C        3.752    -0.102    22.510     6.766
     2   6 C        3.801    -0.053    21.534     6.607
     3   6 C        3.801    -0.053    21.534     6.607
     4   6 C        3.752    -0.102    22.510     6.766
     5   1 H        0.925     0.033     2.550     2.497
     6   1 H        0.925     0.033     2.550     2.497
     7   1 H        0.925     0.032     2.554     2.499
     8   1 H        0.924     0.029     2.600     2.522
     9   1 H        0.924     0.029     2.600     2.522
    10   1 H        0.924     0.029     2.600     2.522
    11   1 H        0.924     0.029     2.600     2.522
    12   1 H        0.925     0.033     2.550     2.497
    13   1 H        0.925     0.032     2.554     2.499
    14   1 H        0.925     0.033     2.550     2.497

 Mol. C6AA /au·bohr⁶  :       1207.510716
 Mol. C8AA /au·bohr⁸  :      24480.611215
 Mol. α(0) /au        :         51.819680


Wiberg/Mayer (AO) data.
largest (>0.10) Wiberg bond orders for each atom

 ---------------------------------------------------------------------------
     #   Z sym  total        # sym  WBO       # sym  WBO       # sym  WBO
 ---------------------------------------------------------------------------
     1   6 C    3.997 --     2 C    1.019     6 H    0.988     5 H    0.988
                             7 H    0.988
     2   6 C    3.998 --     1 C    1.019     3 C    1.009     9 H    0.979
                             8 H    0.979
     3   6 C    3.998 --     4 C    1.019     2 C    1.009    11 H    0.979
                            10 H    0.979
     4   6 C    3.997 --     3 C    1.019    14 H    0.988    12 H    0.988
                            13 H    0.988
     5   1 H    0.999 --     1 C    0.988
     6   1 H    0.999 --     1 C    0.988
     7   1 H    0.999 --     1 C    0.988
     8   1 H    0.999 --     2 C    0.979
     9   1 H    0.999 --     2 C    0.979
    10   1 H    0.999 --     3 C    0.979
    11   1 H    0.999 --     3 C    0.979
    12   1 H    0.999 --     4 C    0.988
    13   1 H    0.999 --     4 C    0.988
    14   1 H    0.999 --     4 C    0.988
 ---------------------------------------------------------------------------

Topologies differ in total number of bonds
Writing topology from bond orders to xtbtopo.mol

molecular dipole:
                 x           y           z       tot (Debye)
 q only:       -0.000       0.000      -0.000
   full:        0.000       0.000      -0.000       0.000
molecular quadrupole (traceless):
                xx          xy          yy          xz          yz          zz
 q only:        0.181       0.059      -0.007       0.000       0.000      -0.174
  q+dip:       -1.085      -0.261       0.130       0.000       0.000       0.955
   full:       -0.468      -0.117       0.049       0.000       0.000       0.420

           -------------------------------------------------
          |                Geometry Summary                 |
           -------------------------------------------------

      molecular mass/u    :       58.1223511
   center of mass at/Å    :        0.0000035       0.0000290       0.0000420
  moments of inertia/u·Å² :        0.2162583E+02   0.1369537E+03   0.1460418E+03
rotational constants/cm⁻¹ :        0.7795137E+00   0.1230900E+00   0.1154302E+00

 * 13 selected distances

     #   Z          #   Z                                           value/Å
     1   6 C        2   6 C                                       1.5232681
     2   6 C        3   6 C                                       1.5268061 (max)
     3   6 C        4   6 C                                       1.5232674
     1   6 C        5   1 H                                       1.0880485
     1   6 C        6   1 H                                       1.0880456
     1   6 C        7   1 H                                       1.0876439 (min)
     2   6 C        8   1 H                                       1.0926083
     2   6 C        9   1 H                                       1.0926002
     3   6 C       10   1 H                                       1.0926055
     3   6 C       11   1 H                                       1.0926019
     4   6 C       12   1 H                                       1.0880460
     4   6 C       13   1 H                                       1.0876443
     4   6 C       14   1 H                                       1.0880465

 * 2 distinct bonds (by element types)

   Z      Z             #   av. dist./Å        max./Å        min./Å
   1 H    6 C          10     1.0897891     1.0926083     1.0876439
   6 C    6 C           3     1.5244472     1.5268061     1.5232674

           -------------------------------------------------
          |               Frequency Printout                |
           -------------------------------------------------
 projected vibrational frequencies (cm⁻¹)
eigval :       -0.00    -0.00    -0.00     0.00     0.00     0.00
eigval :      108.40   214.04   246.24   265.30   427.06   776.57
eigval :      847.53   893.60   967.80  1002.58  1075.58  1110.94
eigval :     1164.51  1202.16  1257.86  1285.55  1304.33  1372.46
eigval :     1415.10  1418.54  1497.06  1499.82  1505.20  1505.39
eigval :     1507.88  1508.73  2958.28  2971.70  2976.21  2982.41
eigval :     3027.74  3029.75  3030.18  3032.77  3036.90  3037.61
 reduced masses (amu)
   1:  8.33   2:  9.78   3: 10.07   4:  8.87   5:  8.00   6:  7.51   7:  6.84   8:  1.52
   9:  2.26  10:  7.79  11:  8.80  12:  1.74  13:  2.22  14:  6.52  15:  2.00  16:  2.84
  17:  9.99  18:  8.15  19:  7.23  20:  6.02  21:  3.40  22:  1.77  23:  3.86  24:  5.19
  25:  3.27  26:  3.14  27:  1.87  28:  1.83  29:  1.56  30:  1.51  31:  1.71  32:  1.59
  33:  1.92  34:  2.02  35:  1.45  36:  1.52  37:  1.96  38:  1.96  39:  1.91  40:  1.91
  41:  1.28  42:  1.29
 IR intensities (km·mol⁻¹)
   1:  0.00   2:  0.00   3:  0.00   4:  0.00   5:  0.00   6:  0.00   7:  0.01   8:  0.02
   9:  0.00  10:  0.41  11:  0.00  12:  9.70  13:  0.00  14:  0.00  15:  2.42  16: 11.96
  17:  0.47  18:  0.00  19:  0.00  20:  0.00  21:  0.55  22:  0.00  23:  2.52  24:  0.00
  25:  0.00  26:  1.65  27:  0.62  28:  0.00  29:  0.00  30:  4.73  31:  2.40  32:  0.00
  33:  0.00  34: 80.86  35:  0.01  36: 62.05  37:  0.00  38:119.16  39:  0.05  40:114.25
  41: 60.67  42:  0.00
 Raman intensities (amu)
   1:  0.00   2:  0.00   3:  0.00   4:  0.00   5:  0.00   6:  0.00   7:  0.00   8:  0.00
   9:  0.00  10:  0.00  11:  0.00  12:  0.00  13:  0.00  14:  0.00  15:  0.00  16:  0.00
  17:  0.00  18:  0.00  19:  0.00  20:  0.00  21:  0.00  22:  0.00  23:  0.00  24:  0.00
  25:  0.00  26:  0.00  27:  0.00  28:  0.00  29:  0.00  30:  0.00  31:  0.00  32:  0.00
  33:  0.00  34:  0.00  35:  0.00  36:  0.00  37:  0.00  38:  0.00  39:  0.00  40:  0.00
  41:  0.00  42:  0.00
 output can be read by thermo (or use thermo option).
 writing <g98.out> molden fake output.
 recommended (thermochemical) frequency scaling factor: 1.0
           -------------------------------------------------
          |             Thermodynamic Functions             |
           -------------------------------------------------

Molecule has the following symmetry elements: (i) (C2) (sigma) 
It seems to be the C2h point group
c2h symmetry found (for desy threshold:  0.10E+00) used in thermo

          ...................................................
          :                      SETUP                      :
          :.................................................:
          :  # frequencies                          36      :
          :  # imaginary freq.                       0      :
          :  linear?                             false      :
          :  only rotor calc.                    false      :
          :  symmetry                              c2h      :
          :  rotational number                       2      :
          :  scaling factor                  1.0000000      :
          :  rotor cutoff                   50.0000000 cm⁻¹ :
          :  imag. cutoff                  -20.0000000 cm⁻¹ :
          :.................................................:

    mode    ω/cm⁻¹     T·S(HO)/kcal·mol⁻¹    T·S(FR)/kcal·mol⁻¹   T·S(vib)
   ------------------------------------------------------------------------
       1    108.40    -0.98310 ( 95.67%)    -0.82686 (  4.33%)    -0.97634
       2    214.04    -0.59897 ( 99.70%)    -0.62555 (  0.30%)    -0.59905
       3    246.24    -0.52396 ( 99.83%)    -0.58406 (  0.17%)    -0.52406
       4    265.30    -0.48499 ( 99.87%)    -0.56199 (  0.13%)    -0.48509
   ------------------------------------------------------------------------

   temp. (K)  partition function   enthalpy   heat capacity  entropy
                                   cal/mol     cal/K/mol   cal/K/mol   J/K/mol
 298.15  VIB   9.64                 1856.319     13.434     10.708
         ROT  0.251E+05              888.752      2.981     23.115
         INT  0.242E+06             2745.071     16.415     33.822
         TR   0.429E+27             1481.254      4.968     38.083
         TOT                        4226.3252    21.3829    71.9056   300.8531

       T/K    H(0)-H(T)+PV         H(T)/Eh          T*S/Eh         G(T)/Eh
   ------------------------------------------------------------------------
    298.15    0.673508E-02    0.137647E+00    0.341647E-01    0.103483E+00
   ------------------------------------------------------------------------

         :::::::::::::::::::::::::::::::::::::::::::::::::::::
         ::                  THERMODYNAMIC                  ::
         :::::::::::::::::::::::::::::::::::::::::::::::::::::
         :: total free energy         -13.561644904025 Eh   ::
         ::.................................................::
         :: total energy              -13.665127472753 Eh   ::
         :: zero point energy           0.130912174294 Eh   ::
         :: G(RRHO) w/o ZPVE           -0.027429605566 Eh   ::
         :: G(RRHO) contrib.            0.103482568728 Eh   ::
         :::::::::::::::::::::::::::::::::::::::::::::::::::::
 
 normal mode %tage of torsion character
   1:  0.00   2:  0.00   3:  0.00   4:  0.00   5:  0.00   6:  0.00   7:  0.51   8:  0.89
   9:  0.90  10:  0.13  11:  0.03  12:  0.50  13:  0.57  14:  0.13  15:  0.21  16:  0.09
  17:  0.03  18:  0.03  19:  0.08  20:  0.54  21:  0.14  22:  0.27  23:  0.07  24:  0.07
  25:  0.00  26:  0.00  27:  0.69  28:  0.60  29:  0.92  30:  0.93  31:  0.83  32:  0.88
  33:  0.45  34:  0.08  35:  0.01  36:  0.01  37:  0.05  38:  0.09  39:  0.04  40:  0.03
  41:  0.00  42:  0.00
 recommended # of modes for mode following           4

optimized geometry written to: xtbopt.xyz


           -------------------------------------------------
          | TOTAL ENERGY              -13.665127472753 Eh   |
          | TOTAL ENTHALPY            -13.527480220519 Eh   |
          | TOTAL FREE ENERGY         -13.561644904025 Eh   |
          | GRADIENT NORM               0.000436166969 Eh/α |
          | HOMO-LUMO GAP              13.811041241476 eV   |
           -------------------------------------------------

------------------------------------------------------------------------
 * finished run on 2024/04/17 at 11:32:25.860     
------------------------------------------------------------------------
 total:
 * wall-time:     0 d,  0 h,  0 min,  0.224 sec
 *  cpu-time:     0 d,  0 h,  0 min,  0.696 sec
 * ratio c/w:     3.111 speedup
 SCF:
 * wall-time:     0 d,  0 h,  0 min,  0.025 sec
 *  cpu-time:     0 d,  0 h,  0 min,  0.078 sec
 * ratio c/w:     3.141 speedup
 ANC optimizer:
 * wall-time:     0 d,  0 h,  0 min,  0.027 sec
 *  cpu-time:     0 d,  0 h,  0 min,  0.094 sec
 * ratio c/w:     3.423 speedup
 analytical hessian:
 * wall-time:     0 d,  0 h,  0 min,  0.080 sec
 *  cpu-time:     0 d,  0 h,  0 min,  0.310 sec
 * ratio c/w:     3.853 speedup

