14
 energy: -13.664353786874 gnorm: 0.019510034976 xtb: 6.6.1 (8d0f1dd)
C           -1.94504600000000       -0.13112300000000       -0.00063300000000
C           -0.56755000000000        0.51321200000000        0.00064700000000
C            0.56757400000000       -0.51328600000000        0.00064800000000
C            1.94501800000000        0.13114600000000       -0.00063000000000
H           -2.08392900000000       -0.76591300000000       -0.87834900000000
H           -2.08632600000000       -0.76348300000000        0.87844500000000
H           -2.74641900000000        0.61190600000000       -0.00249500000000
H           -0.45817600000000        1.17453700000000       -0.86961700000000
H           -0.45934900000000        1.17311500000000        0.87219000000000
H            0.45845000000000       -1.17418800000000       -0.86999900000000
H            0.45930200000000       -1.17367500000000        0.87179000000000
H            2.08518800000000        0.76573500000000        0.87707800000000
H            2.74686900000000       -0.61139500000000        0.00031400000000
H            2.08443000000000        0.76396000000000       -0.87972400000000
14
 energy: -13.665049609527 gnorm: 0.008736129353 xtb: 6.6.1 (8d0f1dd)
C           -1.93687734327373       -0.13435319584652       -0.00049592101864
C           -0.56305326465925        0.51612234786480        0.00064382407466
C            0.56313275051789       -0.51623105549927        0.00054244774963
C            1.93683477613274        0.13448733492914       -0.00047788494498
H           -2.06822937760957       -0.76223330050617       -0.88170259288676
H           -2.07062510400392       -0.76019981321656        0.88181135276746
H           -2.72434147299773        0.61862510919100       -0.00241329313233
H           -0.46119774967613        1.16106972785871       -0.87916764753319
H           -0.46227243907542        1.15989228994639        0.88145625630878
H            0.46141257962718       -1.16094974505236       -0.87947210046610
H            0.46228330893008       -1.16023951761265        0.88115901532131
H            2.06951241247672        0.76237878598538        0.88057348860100
H            2.72453583482573       -0.61824403519408        0.00016893716915
H            2.06892108878541        0.76042306715220       -0.88296088200997
14
 energy: -13.665124129429 gnorm: 0.002185527999 xtb: 6.6.1 (8d0f1dd)
C           -1.93701717551084       -0.13487062987686       -0.00044823902405
C           -0.56156198263843        0.51694059338159        0.00058978377673
C            0.56161614962136       -0.51698731998700        0.00055765192040
C            1.93698336164870        0.13499754740474       -0.00043025422282
H           -2.06298244255448       -0.76079636715050       -0.88178951868327
H           -2.06522897971466       -0.75903334083230        0.88181910759477
H           -2.72002913819889        0.62043781679149       -0.00221795854716
H           -0.46141155329715        1.15537576907211       -0.88099800732681
H           -0.46231986323403        1.15443296336087        0.88295008088915
H            0.46156486495193       -1.15531367606677       -0.88111599010661
H            0.46237064131074       -1.15460213487294        0.88283210185456
H            2.06418228817279        0.76098861439199        0.88069089915293
H            2.72013443764475       -0.62017014903452        0.00013700655814
H            2.06373539179820        0.75914831341810       -0.88291166383597
14
 energy: -13.665127472745 gnorm: 0.000436151225 xtb: 6.6.1 (8d0f1dd)
C           -1.93751213197670       -0.13495799389534       -0.00042598887868
C           -0.56110385634269        0.51760978509265        0.00052853678937
C            0.56114145533943       -0.51762057854740        0.00054008660509
C            1.93748995352666        0.13507168418186       -0.00039000364241
H           -2.06265581575264       -0.76068995271918       -0.88170231818076
H           -2.06473566474859       -0.75909382014069        0.88168043803291
H           -2.72027350112991        0.62019174706628       -0.00204300349609
H           -0.46124340609977        1.15549407117553       -0.88090455550247
H           -0.46207940359789        1.15471587878310        0.88260846812776
H            0.46136143838758       -1.15549260852214       -0.88090748152185
H            0.46211342813849       -1.15474891530490        0.88260565657369
H            2.06380007139562        0.76089978461387        0.88064849421733
H            2.72034970935171       -0.61997807426511        0.00015767660822
H            2.06338372350868        0.75914699248148       -0.88273100573210
