 Entering Gaussian System
 *********************************************
 Gaussian 98:
 frequency output generated by the xtb code
 *********************************************
                         Standard orientation:
 --------------------------------------------------------------------
  Center     Atomic     Atomic              Coordinates (Angstroms)
  Number     Number      Type              X           Y           Z
 --------------------------------------------------------------------
    1          6             0        4.411133   -0.077949   -0.060128
    2          6             0        4.165039   -1.219080   -1.039354
    3          6             0        3.875153   -2.552348   -0.348258
    4          6             0        2.623465   -2.565196    0.530488
    5          6             0        1.335754   -2.283521   -0.239964
    6          6             0        0.096632   -2.514885    0.621796
    7          6             0       -1.190497   -2.199686   -0.135948
    8          6             0       -2.429829   -2.416187    0.729206
    9          6             0       -3.745981   -2.188668   -0.018652
   10          6             0       -3.913531   -0.785275   -0.603832
   11          6             0       -3.992351    0.306425    0.461116
   12          6             0       -3.980481    1.718877   -0.125965
   13          6             0       -2.656561    2.125754   -0.777668
   14          6             0       -1.484052    2.173133    0.199846
   15          6             0       -0.205258    2.671267   -0.469091
   16          6             0        0.953914    2.780928    0.518441
   17          6             0        2.233115    3.278004   -0.150361
   18          6             0        3.351073    3.511463    0.858248
   19          1             0        3.507498    0.158457    0.495019
   20          1             0        5.191980   -0.345906    0.648741
   21          1             0        4.724921    0.817085   -0.592473
   22          1             0        5.052811   -1.347233   -1.664030
   23          1             0        3.337482   -0.959220   -1.701594
   24          1             0        3.771866   -3.325107   -1.114592
   25          1             0        4.735564   -2.817767    0.271728
   26          1             0        2.729760   -1.838792    1.338066
   27          1             0        2.545033   -3.552747    0.993258
   28          1             0        1.289978   -2.934012   -1.117035
   29          1             0        1.333109   -1.250160   -0.592060
   30          1             0        0.153957   -1.884232    1.513063
   31          1             0        0.076883   -3.554792    0.957275
   32          1             0       -1.149250   -1.162253   -0.471438
   33          1             0       -1.253632   -2.834538   -1.023278
   34          1             0       -2.379259   -1.760581    1.600620
   35          1             0       -2.422925   -3.444033    1.101786
   36          1             0       -4.574136   -2.389279    0.665937
   37          1             0       -3.810965   -2.912795   -0.834968
   38          1             0       -3.085650   -0.583857   -1.282457
   39          1             0       -4.830578   -0.762889   -1.198594
   40          1             0       -4.913911    0.172290    1.033535
   41          1             0       -3.161919    0.206635    1.158489
   42          1             0       -4.776249    1.799232   -0.871007
   43          1             0       -4.204981    2.430108    0.673196
   44          1             0       -2.417830    1.442932   -1.595122
   45          1             0       -2.784246    3.118795   -1.216819
   46          1             0       -1.298619    1.179090    0.610014
   47          1             0       -1.737175    2.834067    1.032682
   48          1             0       -0.388821    3.651696   -0.915824
   49          1             0        0.070284    1.989311   -1.277802
   50          1             0        1.138199    1.804324    0.973323
   51          1             0        0.676504    3.469489    1.320510
   52          1             0        2.022288    4.212050   -0.676677
   53          1             0        2.558542    2.546899   -0.893877
   54          1             0        4.256722    3.844040    0.356207
   55          1             0        3.059979    4.272456    1.579270
   56          1             0        3.577039    2.596127    1.400418
 --------------------------------------------------------------------
     1 basis functions        1 primitive gaussians
     1 alpha electrons        1 beta electrons
 
 Harmonic frequencies (cm**-1), IR intensities (KM/Mole),
 Raman scattering activities (A**4/amu), Raman depolarization ratios,
 reduced masses (AMU), force constants (mDyne/A) and normal coordinates:
                      1                      2                      3
                        a                      a                      a 
 Frequencies --     5.9099                14.7216                23.0374
 Red. masses --    99.0000                99.0000                99.0000
 Frc consts  --    99.0000                99.0000                99.0000
 IR Inten    --    99.0000                99.0000                99.0000
 Raman Activ --     0.0000                 0.0000                 0.0000
 Depolar     --     0.0000                 0.0000                 0.0000
 Atom AN      X      Y      Z        X      Y      Z        X      Y      Z
   1   6    -0.09   0.03  -0.49     0.21   0.01  -0.07     0.30  -0.15   0.17
   2   6     0.05  -0.27  -0.18     0.01   0.10  -0.13     0.20  -0.06   0.10
   3   6     0.09  -0.09   0.19    -0.03   0.07  -0.20     0.10  -0.08   0.02
   4   6     0.06   0.10   0.16     0.03   0.10  -0.11     0.09  -0.05  -0.00
   5   6     0.08  -0.10   0.06    -0.01   0.14  -0.02     0.11   0.06  -0.00
   6   6     0.06   0.07   0.08     0.04   0.17   0.06     0.09   0.09  -0.03
   7   6     0.08  -0.05  -0.00    -0.01   0.12   0.11     0.11   0.12  -0.04
   8   6     0.06   0.08  -0.00     0.04   0.17   0.19     0.09   0.11  -0.06
   9   6     0.08   0.06  -0.05    -0.00   0.02   0.22     0.10   0.08  -0.09
  10   6     0.08   0.05  -0.06    -0.08  -0.06   0.04     0.05   0.10  -0.02
  11   6    -0.06   0.04  -0.05    -0.13   0.07  -0.09    -0.12   0.03   0.04
  12   6    -0.07   0.05  -0.04    -0.03  -0.00  -0.27    -0.20   0.07   0.13
  13   6    -0.07   0.09  -0.00     0.04  -0.12  -0.19    -0.24   0.17   0.11
  14   6    -0.06  -0.04  -0.00    -0.05  -0.05  -0.08    -0.19   0.06   0.05
  15   6    -0.08   0.09   0.06     0.03  -0.17  -0.01    -0.19   0.01  -0.01
  16   6    -0.06  -0.07   0.06    -0.05  -0.13   0.09    -0.14  -0.08  -0.06
  17   6    -0.08   0.08   0.13     0.02  -0.21   0.18    -0.11  -0.24  -0.13
  18   6    -0.06  -0.12   0.15    -0.06  -0.20   0.26    -0.08  -0.21  -0.17
  19   1    -0.04   0.04  -0.18     0.08   0.01   0.01     0.10  -0.04   0.06
  20   1    -0.03   0.08  -0.11     0.08  -0.03  -0.05     0.09  -0.07   0.04
  21   1    -0.04  -0.03  -0.21     0.06   0.01  -0.01     0.10  -0.04   0.07
  22   1     0.03  -0.12  -0.02    -0.02   0.02  -0.07     0.05  -0.03   0.02
  23   1     0.02  -0.15  -0.09    -0.01   0.06  -0.01     0.06   0.01   0.04
  24   1     0.04  -0.09   0.12    -0.04   0.04  -0.07     0.02  -0.01  -0.01
  25   1     0.02   0.03   0.08    -0.00  -0.00  -0.08     0.02  -0.05   0.00
  26   1     0.01   0.08  -0.00     0.03   0.02  -0.03     0.03  -0.03   0.01
  27   1     0.02   0.06   0.11     0.01   0.03  -0.04     0.01  -0.02  -0.01
  28   1     0.03  -0.08   0.06    -0.03   0.04  -0.01     0.03   0.03  -0.01
  29   1     0.02  -0.05  -0.05    -0.00   0.04  -0.00     0.05   0.02   0.01
  30   1     0.01   0.07  -0.01     0.02   0.06   0.01     0.03   0.02  -0.01
  31   1     0.01   0.04   0.08     0.02   0.05   0.03     0.02   0.02  -0.01
  32   1     0.02  -0.03  -0.05    -0.01   0.03   0.01     0.04   0.04  -0.00
  33   1     0.03  -0.05   0.03    -0.01   0.02   0.05     0.03   0.04  -0.02
  34   1     0.02   0.05  -0.02     0.02   0.08   0.03     0.02   0.03  -0.02
  35   1     0.00   0.03   0.03     0.03   0.06   0.09     0.03   0.03  -0.02
  36   1     0.02   0.01  -0.02     0.01   0.02   0.08     0.03   0.00  -0.03
  37   1     0.03   0.01  -0.01    -0.00  -0.03   0.09     0.05   0.03  -0.04
  38   1     0.04   0.03   0.01    -0.03  -0.03   0.00     0.03   0.06   0.02
  39   1     0.04   0.01  -0.04    -0.02  -0.05   0.01     0.03   0.02  -0.03
  40   1    -0.03  -0.00  -0.04    -0.05   0.05  -0.04    -0.04  -0.02  -0.01
  41   1    -0.03   0.02   0.01    -0.05   0.04  -0.00    -0.05   0.02   0.03
  42   1    -0.02   0.01  -0.02     0.01  -0.02  -0.10    -0.07   0.02   0.05
  43   1    -0.03   0.01  -0.01    -0.03   0.03  -0.11    -0.06   0.00   0.05
  44   1    -0.03   0.05  -0.02     0.03  -0.06  -0.03    -0.08   0.08   0.00
  45   1    -0.02   0.04   0.03     0.03  -0.05  -0.09    -0.08   0.06   0.07
  46   1    -0.01  -0.03  -0.05    -0.03  -0.00   0.01    -0.06   0.01  -0.00
  47   1    -0.02  -0.05   0.03    -0.03   0.01  -0.05    -0.03   0.01   0.03
  48   1    -0.03   0.05   0.07     0.03  -0.06  -0.03    -0.05   0.01   0.01
  49   1    -0.02   0.07  -0.02     0.02  -0.07   0.02    -0.08   0.00  -0.01
  50   1    -0.01  -0.04  -0.04    -0.04  -0.03   0.05    -0.06  -0.02  -0.01
  51   1    -0.02  -0.06   0.06    -0.03  -0.02   0.01    -0.01  -0.01  -0.02
  52   1    -0.03   0.05   0.09     0.03  -0.07   0.03    -0.02  -0.08  -0.06
  53   1    -0.03   0.07  -0.01     0.02  -0.08   0.07    -0.05  -0.10  -0.02
  54   1    -0.02  -0.00   0.05    -0.00  -0.07   0.09    -0.02  -0.10  -0.06
  55   1    -0.01  -0.08   0.09    -0.03  -0.04   0.06    -0.00  -0.03  -0.07
  56   1    -0.01  -0.07  -0.01    -0.04  -0.05   0.10    -0.05  -0.05  -0.02
                      4                      5                      6
                        a                      a                      a 
 Frequencies --    33.0680                46.4882                55.5051
 Red. masses --    99.0000                99.0000                99.0000
 Frc consts  --    99.0000                99.0000                99.0000
 IR Inten    --    99.0000                99.0000                99.0000
 Raman Activ --     0.0000                 0.0000                 0.0000
 Depolar     --     0.0000                 0.0000                 0.0000
 Atom AN      X      Y      Z        X      Y      Z        X      Y      Z
   1   6    -0.17  -0.14   0.17    -0.08   0.14   0.17    -0.52   0.25   0.00
   2   6     0.00  -0.04   0.01    -0.01   0.19   0.09    -0.07   0.14   0.02
   3   6     0.07  -0.16  -0.18     0.02   0.13   0.01     0.09   0.11   0.04
   4   6     0.09  -0.34  -0.16     0.00   0.03  -0.03     0.06  -0.04  -0.01
   5   6     0.07  -0.24  -0.07    -0.00  -0.07  -0.06     0.07  -0.08  -0.03
   6   6     0.10  -0.17  -0.01     0.00   0.00  -0.03     0.06  -0.07  -0.03
   7   6     0.08  -0.07   0.07    -0.01  -0.13  -0.06     0.07  -0.00  -0.01
   8   6     0.12   0.12   0.16     0.01   0.10   0.03     0.07   0.05   0.00
   9   6     0.10   0.07   0.18    -0.00   0.11   0.06     0.07   0.05   0.01
  10   6     0.10   0.02   0.06     0.02   0.11   0.05     0.07   0.04  -0.01
  11   6    -0.01   0.10  -0.03    -0.08   0.11   0.05    -0.02   0.04  -0.01
  12   6    -0.05   0.05  -0.14    -0.02   0.11   0.07    -0.02   0.04  -0.01
  13   6    -0.04   0.06  -0.12    -0.03   0.05   0.00    -0.01   0.05   0.02
  14   6    -0.07   0.10  -0.09     0.10  -0.38  -0.13    -0.05   0.12   0.06
  15   6    -0.08   0.19  -0.03     0.02  -0.11  -0.07     0.03  -0.13   0.01
  16   6    -0.10   0.15  -0.00     0.10  -0.40  -0.14    -0.01  -0.00   0.04
  17   6    -0.09   0.22   0.07    -0.01   0.03  -0.04     0.08  -0.35  -0.04
  18   6    -0.11   0.10   0.11    -0.03  -0.03  -0.01     0.07  -0.23  -0.05
  19   1    -0.07  -0.08   0.03    -0.03   0.02   0.04    -0.20   0.04  -0.07
  20   1    -0.06  -0.05   0.06    -0.03   0.04   0.05    -0.19   0.13   0.06
  21   1    -0.05  -0.02   0.09    -0.03   0.05   0.07    -0.16   0.08   0.01
  22   1     0.02   0.03   0.02     0.00   0.07   0.03     0.02   0.09   0.06
  23   1     0.01  -0.01  -0.00    -0.00   0.06   0.03    -0.00  -0.02  -0.04
  24   1     0.03  -0.01  -0.09     0.02   0.05  -0.01     0.07   0.02   0.02
  25   1     0.03  -0.06  -0.07     0.01   0.04   0.01     0.03   0.07   0.02
  26   1     0.03  -0.14  -0.01    -0.02   0.01  -0.01    -0.00  -0.02   0.01
  27   1     0.04  -0.12  -0.09     0.02   0.01  -0.01     0.03  -0.02  -0.02
  28   1    -0.01  -0.06  -0.03     0.00  -0.05   0.00     0.02  -0.03  -0.00
  29   1     0.03  -0.07  -0.01    -0.01  -0.03  -0.05     0.02  -0.02  -0.01
  30   1     0.06  -0.05  -0.00    -0.00   0.03  -0.03     0.03  -0.03  -0.00
  31   1     0.01  -0.05  -0.00     0.01   0.01   0.03     0.01  -0.02  -0.02
  32   1     0.05  -0.03   0.00     0.00  -0.06  -0.08     0.03  -0.00  -0.00
  33   1    -0.01  -0.03   0.03    -0.02  -0.09   0.02     0.01   0.00  -0.00
  34   1     0.05   0.07   0.02     0.03   0.06  -0.02     0.03   0.03  -0.01
  35   1     0.02   0.05   0.09    -0.02   0.04   0.05     0.02   0.02   0.01
  36   1     0.03   0.04   0.06     0.00   0.04   0.02     0.02   0.01   0.00
  37   1     0.02  -0.00   0.07    -0.01   0.03   0.02     0.02   0.01   0.00
  38   1     0.04  -0.00   0.03     0.02   0.04   0.03     0.03   0.02   0.01
  39   1     0.04  -0.02  -0.00     0.02   0.03  -0.00     0.03   0.01  -0.02
  40   1    -0.01   0.03  -0.02    -0.04   0.03  -0.01    -0.02   0.01  -0.02
  41   1    -0.01   0.05   0.01    -0.04   0.03   0.04    -0.02   0.02   0.01
  42   1    -0.01  -0.01  -0.05    -0.01   0.05   0.03    -0.00   0.01  -0.01
  43   1    -0.03   0.03  -0.06     0.02   0.03   0.03    -0.02   0.01  -0.01
  44   1    -0.00   0.02  -0.03    -0.07   0.06  -0.06     0.01   0.01   0.02
  45   1    -0.02   0.02  -0.04     0.02   0.05   0.08    -0.00   0.01  -0.01
  46   1    -0.01   0.03  -0.04     0.04  -0.16  -0.16    -0.04   0.05   0.07
  47   1    -0.04   0.02  -0.02     0.06  -0.21   0.05    -0.00   0.09  -0.02
  48   1    -0.03   0.06   0.01    -0.02   0.01   0.08     0.04  -0.06  -0.06
  49   1    -0.01   0.08  -0.02    -0.01   0.05  -0.10     0.00  -0.10   0.05
  50   1    -0.03   0.04  -0.02     0.07  -0.16  -0.16    -0.05   0.03   0.09
  51   1    -0.04   0.03   0.01     0.03  -0.22   0.05     0.01   0.07  -0.05
  52   1    -0.02   0.08   0.05    -0.06   0.04   0.07     0.07  -0.13  -0.08
  53   1    -0.02   0.08  -0.00     0.03   0.09  -0.08     0.00  -0.17   0.05
  54   1    -0.03   0.05   0.05    -0.03   0.08   0.01     0.04  -0.15  -0.03
  55   1    -0.03   0.00   0.06    -0.04  -0.08   0.06     0.04   0.01  -0.08
  56   1    -0.03   0.01   0.00     0.04  -0.04  -0.07    -0.03  -0.03   0.07
                      7                      8                      9
                        a                      a                      a 
 Frequencies --    65.4732                70.7973                80.1122
 Red. masses --    99.0000                99.0000                99.0000
 Frc consts  --    99.0000                99.0000                99.0000
 IR Inten    --    99.0000                99.0000                99.0000
 Raman Activ --     0.0000                 0.0000                 0.0000
 Depolar     --     0.0000                 0.0000                 0.0000
 Atom AN      X      Y      Z        X      Y      Z        X      Y      Z
   1   6    -0.26  -0.05   0.01    -0.18  -0.10   0.01    -0.07   0.03   0.10
   2   6    -0.10  -0.03  -0.05     0.20  -0.21   0.04     0.20  -0.04   0.12
   3   6    -0.04  -0.08  -0.11     0.07  -0.17   0.07     0.05   0.00   0.14
   4   6     0.05  -0.11   0.02    -0.01  -0.07  -0.05    -0.07   0.09  -0.04
   5   6     0.03   0.34   0.21     0.07   0.10  -0.13     0.01   0.08  -0.18
   6   6     0.03   0.08   0.14     0.03   0.22  -0.15    -0.01   0.13  -0.20
   7   6     0.07   0.35   0.20     0.02   0.24  -0.11    -0.06   0.05  -0.15
   8   6     0.00  -0.03   0.01     0.08   0.14  -0.05     0.04  -0.03  -0.02
   9   6     0.07  -0.06  -0.11    -0.00   0.02   0.06    -0.08  -0.08   0.18
  10   6     0.06  -0.04  -0.07    -0.16  -0.00   0.05    -0.20  -0.11   0.16
  11   6     0.06  -0.08  -0.04    -0.14   0.01   0.04     0.10  -0.04   0.11
  12   6     0.01  -0.06   0.00    -0.01   0.00   0.02     0.04  -0.08   0.00
  13   6    -0.01  -0.01  -0.01     0.05  -0.13   0.05     0.00  -0.10  -0.08
  14   6     0.02  -0.06  -0.04     0.03  -0.15   0.07    -0.00   0.12  -0.08
  15   6    -0.02   0.06  -0.02     0.07  -0.31   0.03    -0.05   0.27  -0.06
  16   6     0.04  -0.15  -0.07     0.02  -0.04   0.05    -0.02   0.05  -0.07
  17   6    -0.02   0.08  -0.01    -0.04   0.06   0.00     0.01   0.08   0.01
  18   6     0.03  -0.14  -0.02    -0.08   0.35  -0.02     0.08  -0.37   0.03
  19   1    -0.09  -0.04  -0.02    -0.11  -0.01  -0.10    -0.07   0.02  -0.05
  20   1    -0.09  -0.00   0.02    -0.13  -0.00   0.10    -0.08   0.02   0.10
  21   1    -0.08  -0.00   0.02     0.00  -0.05   0.01     0.02  -0.00   0.04
  22   1    -0.02   0.02  -0.00     0.11  -0.06   0.09     0.10  -0.02   0.10
  23   1    -0.03  -0.02  -0.03     0.11  -0.09  -0.07     0.10  -0.03  -0.03
  24   1    -0.04  -0.00  -0.05     0.04  -0.06   0.03     0.04  -0.01   0.05
  25   1     0.00  -0.04  -0.06    -0.00  -0.05   0.05    -0.01   0.00   0.08
  26   1     0.07  -0.11   0.06    -0.00  -0.03  -0.00    -0.04   0.04  -0.02
  27   1    -0.02  -0.07  -0.08    -0.05  -0.02  -0.03    -0.04   0.03   0.00
  28   1    -0.02   0.21  -0.02     0.01   0.03  -0.04     0.02   0.01  -0.04
  29   1     0.03   0.14   0.19     0.06   0.03  -0.03     0.01   0.02  -0.07
  30   1     0.01  -0.07   0.10     0.02   0.07  -0.05    -0.00   0.05  -0.07
  31   1     0.00  -0.01  -0.06    -0.01   0.07  -0.03     0.00   0.04  -0.04
  32   1     0.02   0.14   0.18    -0.01   0.08  -0.02    -0.04   0.02  -0.05
  33   1     0.04   0.20  -0.02     0.00   0.08  -0.04    -0.03   0.01  -0.04
  34   1    -0.06  -0.06   0.05     0.02   0.04  -0.01     0.04  -0.02  -0.00
  35   1     0.03  -0.03  -0.06     0.05   0.04  -0.02     0.04  -0.01  -0.01
  36   1     0.00  -0.04  -0.06     0.02  -0.01   0.04     0.01  -0.02   0.09
  37   1     0.05  -0.01  -0.04    -0.00   0.00   0.02    -0.06  -0.03   0.06
  38   1     0.02  -0.01  -0.02    -0.07   0.01  -0.01    -0.11  -0.05  -0.02
  39   1     0.02  -0.01  -0.02    -0.06  -0.02   0.04    -0.10  -0.03   0.11
  40   1     0.02  -0.03  -0.01    -0.05   0.02   0.00     0.07   0.01   0.10
  41   1     0.02  -0.02  -0.02    -0.05  -0.01   0.02     0.08  -0.01  -0.02
  42   1    -0.00  -0.02   0.01     0.01   0.02  -0.00     0.00  -0.05   0.01
  43   1     0.00  -0.03   0.01     0.01   0.01  -0.00     0.02  -0.01  -0.01
  44   1    -0.01   0.01  -0.02     0.01  -0.05   0.03     0.01  -0.06   0.01
  45   1    -0.01   0.01   0.01     0.04  -0.04  -0.00    -0.02  -0.05  -0.07
  46   1     0.02  -0.03  -0.04    -0.02  -0.04   0.05     0.04   0.05  -0.01
  47   1     0.00  -0.05   0.01     0.02  -0.01   0.00    -0.03   0.03  -0.03
  48   1    -0.01   0.04   0.05     0.02  -0.12  -0.06    -0.02   0.10   0.04
  49   1    -0.02   0.06  -0.05     0.03  -0.14   0.06    -0.02   0.12  -0.06
  50   1     0.03  -0.08  -0.10     0.04   0.01   0.05    -0.02  -0.01  -0.07
  51   1     0.02  -0.11   0.04    -0.02   0.01  -0.01     0.01  -0.02   0.02
  52   1    -0.03   0.06   0.07    -0.05  -0.01  -0.03     0.03   0.07   0.08
  53   1    -0.01   0.09  -0.07     0.02   0.01   0.03    -0.03   0.07  -0.06
  54   1    -0.00   0.01   0.01    -0.04   0.14  -0.02     0.03  -0.11   0.03
  55   1     0.01  -0.10   0.06    -0.06   0.10  -0.02     0.06  -0.15   0.07
  56   1     0.03  -0.08  -0.08     0.03   0.12   0.01    -0.01  -0.16  -0.06
                     10                     11                     12
                        a                      a                      a 
 Frequencies --   104.8901               117.8066                91.6645
 Red. masses --    99.0000                99.0000                99.0000
 Frc consts  --    99.0000                99.0000                99.0000
 IR Inten    --    99.0000                99.0000                99.0000
 Raman Activ --     0.0000                 0.0000                 0.0000
 Depolar     --     0.0000                 0.0000                 0.0000
 Atom AN      X      Y      Z        X      Y      Z        X      Y      Z
   1   6     0.13   0.08  -0.09    -0.04  -0.03  -0.04     0.03   0.01  -0.09
   2   6     0.01  -0.00   0.04     0.03  -0.06  -0.01     0.01  -0.05  -0.01
   3   6     0.06   0.06   0.17    -0.01  -0.04   0.02     0.02  -0.01   0.07
   4   6    -0.02   0.04   0.06    -0.01   0.03   0.01    -0.00   0.02   0.04
   5   6     0.03   0.03  -0.03     0.01   0.25   0.04     0.02   0.06   0.01
   6   6    -0.02  -0.49  -0.24    -0.01  -0.10  -0.08    -0.01  -0.18  -0.09
   7   6    -0.01   0.11  -0.02    -0.02  -0.10  -0.06     0.00   0.05  -0.01
   8   6     0.03   0.06   0.04     0.02   0.01   0.02     0.01  -0.09  -0.04
   9   6    -0.02   0.06   0.13    -0.02   0.02   0.08    -0.01   0.04   0.02
  10   6    -0.03   0.01   0.04     0.00   0.00   0.03     0.04   0.08   0.12
  11   6    -0.13   0.08  -0.04    -0.05   0.03  -0.01     0.18   0.04   0.18
  12   6    -0.04   0.04  -0.14     0.01   0.01  -0.04     0.03   0.05   0.20
  13   6     0.04  -0.03  -0.02     0.03  -0.03  -0.03    -0.12   0.09  -0.08
  14   6    -0.06   0.05   0.10     0.10  -0.39  -0.09     0.03   0.04  -0.26
  15   6    -0.01  -0.06   0.11    -0.06   0.25   0.09     0.04  -0.11  -0.33
  16   6     0.04  -0.11   0.06    -0.07   0.25   0.11    -0.08  -0.01  -0.19
  17   6    -0.07   0.07  -0.01     0.04  -0.17  -0.00     0.07  -0.08   0.05
  18   6     0.05  -0.01  -0.13     0.03   0.05  -0.04    -0.24   0.07   0.36
  19   1     0.07   0.01   0.03    -0.02   0.00  -0.04     0.01   0.01  -0.02
  20   1     0.09   0.06  -0.07    -0.03  -0.00   0.01     0.02   0.02  -0.03
  21   1    -0.02   0.02  -0.06     0.01  -0.02  -0.01    -0.00  -0.01  -0.04
  22   1    -0.01  -0.02  -0.01     0.02  -0.02   0.01     0.00  -0.03  -0.01
  23   1    -0.02  -0.01   0.03     0.02  -0.03  -0.02    -0.00  -0.03  -0.00
  24   1     0.06  -0.01   0.07    -0.01  -0.01   0.01     0.02  -0.02   0.03
  25   1     0.01   0.06   0.08    -0.01  -0.02   0.01     0.00   0.01   0.03
  26   1    -0.03   0.01   0.02     0.02  -0.02   0.03    -0.00   0.00   0.01
  27   1    -0.01   0.01   0.01    -0.04  -0.00  -0.03    -0.01   0.00   0.01
  28   1     0.08   0.09  -0.07     0.02   0.16  -0.05     0.03   0.06  -0.03
  29   1    -0.04   0.04   0.09    -0.00   0.11   0.11    -0.01   0.04   0.06
  30   1    -0.00  -0.32   0.05    -0.04  -0.08   0.02    -0.01  -0.13   0.03
  31   1    -0.02  -0.21  -0.27     0.03  -0.05  -0.09    -0.01  -0.08  -0.11
  32   1     0.05   0.07   0.12     0.00  -0.04  -0.04     0.01   0.04   0.07
  33   1    -0.07   0.14  -0.08    -0.02  -0.04  -0.00    -0.01   0.07  -0.05
  34   1     0.02   0.01   0.02     0.03   0.02  -0.01     0.01  -0.07   0.02
  35   1     0.02   0.01  -0.00    -0.00   0.01   0.03     0.00  -0.04  -0.06
  36   1     0.01   0.04   0.06     0.00   0.02   0.04     0.00   0.01   0.01
  37   1    -0.03  -0.00   0.06    -0.02  -0.00   0.03    -0.02   0.03  -0.01
  38   1     0.00  -0.00   0.02     0.01  -0.00   0.02     0.00   0.02   0.02
  39   1     0.00  -0.01  -0.01     0.01  -0.00  -0.00    -0.00   0.05   0.05
  40   1    -0.06   0.04  -0.04    -0.03   0.02  -0.02     0.08  -0.00   0.09
  41   1    -0.06   0.03   0.02    -0.03   0.01   0.02     0.08   0.01   0.01
  42   1     0.01  -0.00  -0.07     0.01   0.01  -0.02    -0.04   0.02   0.11
  43   1    -0.04   0.03  -0.06     0.01   0.01  -0.02     0.06   0.01   0.08
  44   1     0.04  -0.03   0.02    -0.03   0.04  -0.06    -0.08   0.03  -0.04
  45   1     0.03  -0.02  -0.04     0.03   0.03   0.06    -0.06   0.03  -0.00
  46   1    -0.03   0.03   0.07     0.09  -0.17  -0.20    -0.00   0.01  -0.07
  47   1    -0.03   0.05  -0.00     0.01  -0.27   0.09     0.05   0.03  -0.07
  48   1     0.01  -0.02   0.02    -0.10   0.10   0.13     0.03  -0.05  -0.14
  49   1    -0.02  -0.03   0.03     0.04   0.18  -0.04     0.02  -0.07  -0.06
  50   1     0.04  -0.04  -0.02    -0.08   0.09   0.09    -0.05   0.01  -0.02
  51   1     0.01  -0.06   0.05     0.01   0.14  -0.01    -0.06   0.02  -0.09
  52   1    -0.05   0.04   0.05     0.06  -0.10  -0.11     0.06  -0.04  -0.04
  53   1    -0.03   0.06  -0.05    -0.01  -0.15   0.09     0.08  -0.05   0.07
  54   1    -0.01   0.05  -0.06     0.04  -0.12  -0.04    -0.03   0.01   0.17
  55   1     0.02  -0.05   0.01     0.05   0.14  -0.13    -0.14   0.04   0.05
  56   1     0.06  -0.02  -0.09    -0.07   0.08   0.12    -0.11   0.04   0.16
                     13                     14                     15
                        a                      a                      a 
 Frequencies --   129.0668               132.3296               156.6096
 Red. masses --    99.0000                99.0000                99.0000
 Frc consts  --    99.0000                99.0000                99.0000
 IR Inten    --    99.0000                99.0000                99.0000
 Raman Activ --     0.0000                 0.0000                 0.0000
 Depolar     --     0.0000                 0.0000                 0.0000
 Atom AN      X      Y      Z        X      Y      Z        X      Y      Z
   1   6    -0.04  -0.06   0.02    -0.06  -0.04  -0.01    -0.01  -0.01   0.05
   2   6     0.03  -0.04  -0.02     0.06  -0.06  -0.02     0.32  -0.01  -0.04
   3   6    -0.03  -0.04  -0.05    -0.02  -0.04  -0.03    -0.07   0.02  -0.13
   4   6     0.03   0.03   0.03    -0.01   0.04  -0.01    -0.05   0.27  -0.10
   5   6     0.04   0.39   0.14    -0.01   0.18   0.02    -0.13  -0.04  -0.08
   6   6     0.02  -0.02  -0.00    -0.00   0.00  -0.02    -0.03  -0.15   0.05
   7   6     0.00  -0.43  -0.15    -0.03  -0.19  -0.05    -0.08  -0.00   0.22
   8   6     0.02  -0.04  -0.03     0.00  -0.07   0.03    -0.11  -0.12   0.15
   9   6     0.00   0.04   0.02    -0.02  -0.03   0.08    -0.01   0.00  -0.00
  10   6     0.06   0.05   0.02     0.03  -0.05   0.01     0.21   0.01  -0.06
  11   6    -0.05   0.05   0.02     0.10  -0.00  -0.04     0.03  -0.00  -0.06
  12   6    -0.02   0.05   0.02    -0.00  -0.02  -0.10    -0.01   0.01  -0.02
  13   6    -0.01   0.03   0.01     0.00   0.09  -0.01    -0.02   0.10   0.01
  14   6    -0.03   0.08   0.02    -0.08   0.30   0.08    -0.01  -0.04  -0.00
  15   6     0.05  -0.22  -0.06    -0.05   0.22   0.10     0.01  -0.08   0.00
  16   6    -0.03   0.09  -0.00     0.12  -0.39  -0.03    -0.02   0.03   0.02
  17   6    -0.06   0.18   0.01     0.07  -0.24  -0.02    -0.03   0.04   0.01
  18   6     0.04  -0.13  -0.02    -0.08   0.28   0.02     0.01  -0.03  -0.02
  19   1    -0.03  -0.01  -0.02    -0.05   0.02  -0.06    -0.12   0.15  -0.24
  20   1    -0.04  -0.02   0.03    -0.07  -0.02   0.05    -0.23  -0.09   0.23
  21   1     0.01  -0.02   0.02     0.04  -0.02   0.01     0.27  -0.07   0.07
  22   1     0.02  -0.01   0.01     0.04  -0.02   0.03     0.16  -0.03   0.10
  23   1     0.02  -0.01  -0.02     0.04  -0.02  -0.03     0.18   0.01  -0.11
  24   1    -0.04  -0.00  -0.02    -0.02  -0.01  -0.01    -0.07   0.03  -0.05
  25   1    -0.00  -0.04  -0.03    -0.01  -0.03  -0.01    -0.04  -0.07  -0.04
  26   1     0.06  -0.04   0.05     0.02  -0.00   0.01    -0.01   0.15  -0.09
  27   1    -0.03  -0.01  -0.05    -0.03   0.01  -0.02     0.00   0.12   0.06
  28   1     0.02   0.23  -0.04     0.00   0.09  -0.03    -0.02  -0.05   0.00
  29   1     0.01   0.16   0.18    -0.00   0.07   0.06    -0.09  -0.02  -0.07
  30   1    -0.08  -0.00   0.00    -0.03   0.00  -0.01     0.03  -0.08   0.04
  31   1     0.09  -0.01  -0.00     0.04   0.00  -0.00     0.00  -0.06  -0.03
  32   1    -0.01  -0.17  -0.18    -0.02  -0.07  -0.07    -0.02   0.02   0.12
  33   1     0.00  -0.25   0.04    -0.01  -0.10   0.02    -0.04   0.05   0.03
  34   1     0.06   0.04  -0.05     0.02  -0.00  -0.01    -0.05  -0.06   0.06
  35   1    -0.04   0.01   0.06    -0.01  -0.01   0.03    -0.05  -0.05   0.01
  36   1     0.01   0.03   0.02     0.00   0.02   0.04    -0.04   0.03  -0.03
  37   1    -0.02   0.01   0.01    -0.03  -0.02   0.03     0.01  -0.00   0.00
  38   1     0.04   0.02   0.03     0.00  -0.03  -0.01     0.11  -0.01   0.04
  39   1     0.03   0.02  -0.02     0.00  -0.01   0.01     0.10   0.02  -0.07
  40   1    -0.03   0.01  -0.02     0.04  -0.00   0.01    -0.01  -0.02  -0.05
  41   1    -0.03   0.02   0.03     0.05   0.01  -0.03    -0.01   0.01   0.01
  42   1    -0.01   0.02   0.00     0.01  -0.04  -0.05    -0.00   0.00  -0.01
  43   1    -0.00   0.02   0.00    -0.04  -0.00  -0.04    -0.02  -0.01  -0.00
  44   1    -0.00  -0.00   0.02     0.05   0.01   0.02    -0.01   0.06  -0.02
  45   1    -0.00   0.00  -0.01    -0.02   0.01  -0.03    -0.01   0.05   0.04
  46   1    -0.05   0.04   0.07    -0.02   0.10   0.07    -0.02  -0.02  -0.02
  47   1     0.01   0.08  -0.04    -0.05   0.12  -0.01     0.01  -0.02   0.01
  48   1     0.04  -0.11  -0.12     0.03   0.12   0.13     0.00  -0.03  -0.03
  49   1     0.02  -0.15   0.06    -0.09   0.12  -0.05     0.01  -0.04   0.02
  50   1     0.02   0.05   0.04     0.02  -0.17  -0.14     0.00   0.02   0.03
  51   1    -0.05   0.05  -0.03     0.09  -0.20   0.09    -0.02   0.02  -0.01
  52   1    -0.01   0.09   0.07    -0.03  -0.11  -0.07    -0.01   0.02   0.02
  53   1    -0.04   0.10  -0.05     0.09  -0.09   0.04    -0.02   0.02  -0.01
  54   1    -0.01   0.01   0.00    -0.03   0.10   0.01    -0.00   0.00  -0.01
  55   1     0.03  -0.11   0.08    -0.10   0.12  -0.06     0.01  -0.02   0.01
  56   1     0.03  -0.09  -0.10     0.02   0.14   0.09     0.01  -0.02  -0.03
                     16                     17                     18
                        a                      a                      a 
 Frequencies --   233.8275               194.0987               217.7314
 Red. masses --    99.0000                99.0000                99.0000
 Frc consts  --    99.0000                99.0000                99.0000
 IR Inten    --    99.0000                99.0000                99.0000
 Raman Activ --     0.0000                 0.0000                 0.0000
 Depolar     --     0.0000                 0.0000                 0.0000
 Atom AN      X      Y      Z        X      Y      Z        X      Y      Z
   1   6    -0.01  -0.01   0.01     0.00   0.00  -0.00     0.04   0.13  -0.07
   2   6    -0.01  -0.00   0.01     0.06   0.03  -0.06     0.25  -0.01   0.05
   3   6    -0.01   0.00   0.02     0.01   0.01  -0.11     0.15   0.01   0.06
   4   6    -0.03   0.02  -0.01     0.13   0.04   0.07    -0.04  -0.17  -0.18
   5   6    -0.02   0.02  -0.04     0.05  -0.07   0.15    -0.06   0.06  -0.09
   6   6     0.00   0.01  -0.01     0.01  -0.17   0.09     0.00   0.12   0.06
   7   6    -0.00   0.00   0.01     0.07  -0.05   0.01    -0.10  -0.06   0.15
   8   6     0.01   0.00   0.02    -0.02   0.15  -0.06    -0.16  -0.32   0.02
   9   6     0.03  -0.00  -0.02    -0.00   0.00  -0.16    -0.10   0.01  -0.02
  10   6     0.06   0.01   0.01    -0.26   0.03  -0.02     0.16   0.09   0.08
  11   6    -0.09  -0.02   0.02    -0.39  -0.03   0.04    -0.25   0.08   0.05
  12   6     0.00  -0.01   0.05    -0.01   0.01   0.13    -0.02   0.06  -0.03
  13   6    -0.00  -0.08  -0.01     0.06  -0.27   0.09     0.05  -0.11   0.00
  14   6     0.02   0.01  -0.04     0.08   0.07   0.05     0.02   0.02   0.03
  15   6    -0.02   0.12  -0.02    -0.01   0.16  -0.09    -0.01   0.05  -0.02
  16   6    -0.03   0.13   0.01     0.09   0.03  -0.20     0.04   0.01  -0.08
  17   6     0.10  -0.25  -0.02     0.16   0.04  -0.08     0.05   0.03  -0.04
  18   6     0.01   0.02   0.01    -0.02  -0.01   0.14    -0.02  -0.00   0.05
  19   1     0.00  -0.02   0.02    -0.04   0.08  -0.10     0.04  -0.10   0.08
  20   1     0.01   0.01  -0.01    -0.10  -0.06   0.09     0.14   0.17  -0.11
  21   1    -0.02   0.00   0.00     0.14  -0.03   0.03    -0.19   0.08  -0.07
  22   1    -0.00   0.00   0.00     0.03   0.01  -0.00     0.10  -0.01   0.06
  23   1    -0.00  -0.00   0.00     0.03   0.02  -0.03     0.10  -0.03  -0.03
  24   1     0.00  -0.00   0.01    -0.04   0.02  -0.04     0.12  -0.00   0.01
  25   1    -0.01   0.01   0.01     0.02  -0.03  -0.07     0.00   0.02   0.08
  26   1    -0.01   0.01  -0.01     0.06   0.03  -0.00    -0.03  -0.12   0.01
  27   1    -0.01   0.01   0.00     0.06   0.02   0.04    -0.03  -0.08  -0.13
  28   1    -0.00   0.00  -0.01     0.03  -0.01   0.04    -0.06   0.04  -0.04
  29   1    -0.01   0.00  -0.01    -0.01  -0.02   0.05     0.01   0.03  -0.00
  30   1     0.00   0.00  -0.01    -0.01  -0.08   0.05     0.02   0.07  -0.01
  31   1     0.00   0.00  -0.00    -0.01  -0.06  -0.01     0.03   0.05   0.06
  32   1    -0.00   0.00   0.00     0.06  -0.02  -0.01    -0.07  -0.00   0.08
  33   1    -0.00   0.00   0.00     0.01  -0.03   0.01     0.00   0.01   0.02
  34   1    -0.00   0.01   0.00    -0.02   0.09  -0.05    -0.06  -0.17   0.07
  35   1     0.00   0.00   0.01    -0.02   0.06   0.04    -0.07  -0.13  -0.09
  36   1    -0.00  -0.01  -0.02    -0.00  -0.07  -0.07    -0.05   0.02  -0.03
  37   1     0.02   0.00  -0.01     0.06   0.02  -0.07    -0.05   0.03  -0.03
  38   1     0.04   0.01   0.03    -0.08   0.05  -0.00     0.12   0.03   0.12
  39   1     0.04   0.00  -0.03    -0.07  -0.02  -0.01     0.11   0.04  -0.08
  40   1    -0.05  -0.01  -0.03    -0.16   0.02  -0.06    -0.14   0.04  -0.09
  41   1    -0.05  -0.01   0.04    -0.16  -0.05   0.06    -0.15   0.02   0.11
  42   1    -0.01   0.02   0.02    -0.00   0.08   0.04     0.01   0.03  -0.03
  43   1     0.02  -0.00   0.02     0.05   0.01   0.05    -0.00   0.04  -0.03
  44   1    -0.01  -0.04   0.01     0.02  -0.15   0.09     0.02  -0.07   0.03
  45   1    -0.00  -0.03  -0.03     0.03  -0.12  -0.07     0.03  -0.05  -0.05
  46   1     0.03   0.00  -0.02     0.06   0.05   0.07     0.01   0.02   0.03
  47   1    -0.01  -0.01  -0.01     0.00   0.05  -0.02    -0.01   0.02  -0.01
  48   1    -0.02   0.04   0.01    -0.03   0.06   0.01    -0.01   0.02   0.01
  49   1     0.01   0.05  -0.01    -0.03   0.07  -0.06    -0.02   0.03  -0.02
  50   1    -0.07   0.06   0.08     0.02  -0.01  -0.09     0.01  -0.01  -0.04
  51   1     0.01   0.11  -0.05     0.04  -0.01  -0.03     0.02  -0.01  -0.01
  52   1     0.06  -0.11  -0.09     0.07   0.02  -0.03     0.02   0.01  -0.01
  53   1     0.04  -0.14   0.07     0.07   0.01  -0.01     0.02   0.01  -0.01
  54   1    -0.15   0.51   0.05     0.04  -0.06   0.09     0.03  -0.06   0.03
  55   1    -0.24  -0.33   0.26    -0.02   0.03  -0.00     0.01   0.04  -0.02
  56   1     0.38  -0.08  -0.30    -0.08   0.00   0.08    -0.06   0.01   0.05
                     19                     20                     21
                        a                      a                      a 
 Frequencies --   224.7441               270.0793               237.9299
 Red. masses --    99.0000                99.0000                99.0000
 Frc consts  --    99.0000                99.0000                99.0000
 IR Inten    --    99.0000                99.0000                99.0000
 Raman Activ --     0.0000                 0.0000                 0.0000
 Depolar     --     0.0000                 0.0000                 0.0000
 Atom AN      X      Y      Z        X      Y      Z        X      Y      Z
   1   6     0.07   0.16  -0.09     0.16   0.15  -0.12    -0.02  -0.05   0.03
   2   6     0.29   0.04  -0.01    -0.16   0.07   0.05    -0.12   0.02  -0.03
   3   6     0.19   0.03  -0.05     0.04   0.06   0.14     0.01  -0.01  -0.04
   4   6     0.13  -0.19  -0.07    -0.07  -0.32  -0.03     0.11   0.02   0.11
   5   6     0.02  -0.04   0.12    -0.01   0.00  -0.02     0.11  -0.05   0.08
   6   6    -0.01  -0.09   0.14    -0.03   0.08  -0.02     0.03   0.06  -0.01
   7   6    -0.05  -0.08   0.14    -0.03   0.02  -0.03     0.06   0.04  -0.10
   8   6    -0.17   0.06   0.04     0.00  -0.00   0.02     0.08  -0.33  -0.15
   9   6    -0.16  -0.04  -0.06    -0.01  -0.02   0.04    -0.09  -0.10   0.20
  10   6    -0.41  -0.06  -0.09     0.09  -0.03  -0.02    -0.13  -0.12   0.10
  11   6     0.08  -0.01  -0.10    -0.09  -0.07  -0.00    -0.25   0.05  -0.07
  12   6    -0.03   0.04  -0.01    -0.02  -0.01   0.13    -0.15   0.04  -0.16
  13   6    -0.07   0.22   0.00    -0.11  -0.03  -0.10    -0.08   0.31   0.10
  14   6    -0.00  -0.00  -0.05    -0.04   0.06  -0.17     0.03   0.02   0.01
  15   6     0.04  -0.04   0.01     0.06   0.03  -0.03     0.05  -0.02  -0.04
  16   6     0.00   0.01   0.07    -0.01  -0.04   0.10     0.11   0.07  -0.08
  17   6     0.01  -0.04   0.05     0.01  -0.00   0.13     0.17   0.04  -0.02
  18   6     0.07   0.03  -0.03     0.17   0.05  -0.04     0.10   0.02   0.07
  19   1     0.01   0.00  -0.03    -0.00   0.31  -0.23    -0.01   0.04  -0.03
  20   1     0.04   0.11  -0.02    -0.16  -0.09   0.14    -0.05  -0.07   0.04
  21   1    -0.03   0.05  -0.05     0.38  -0.08  -0.05     0.07  -0.03   0.03
  22   1     0.12   0.01   0.05    -0.09  -0.01  -0.04    -0.05   0.02  -0.04
  23   1     0.12  -0.01  -0.05    -0.08   0.01   0.06    -0.06   0.01   0.02
  24   1     0.08   0.02  -0.03     0.11  -0.00   0.04    -0.03  -0.00  -0.01
  25   1     0.04   0.00   0.01     0.01   0.09   0.08     0.03  -0.00  -0.05
  26   1     0.04  -0.11   0.03    -0.05  -0.18   0.07     0.04   0.03   0.01
  27   1     0.06  -0.09  -0.09    -0.03  -0.15  -0.13     0.04   0.02   0.06
  28   1    -0.02   0.03   0.01    -0.03   0.05  -0.04     0.04  -0.04   0.04
  29   1     0.01   0.00   0.08     0.04   0.02   0.05     0.04  -0.03  -0.01
  30   1    -0.00  -0.04   0.05    -0.01   0.04  -0.02    -0.00   0.03  -0.01
  31   1    -0.00  -0.03   0.03    -0.01   0.03   0.02    -0.01   0.02   0.02
  32   1    -0.01  -0.03   0.01    -0.02   0.00  -0.02    -0.02   0.04   0.04
  33   1    -0.01  -0.04   0.05    -0.01  -0.00  -0.00     0.06   0.06  -0.07
  34   1    -0.07   0.04  -0.01     0.01   0.00   0.00     0.05  -0.19   0.03
  35   1    -0.07   0.03   0.04     0.01   0.00   0.01     0.04  -0.14  -0.16
  36   1    -0.04  -0.04  -0.02    -0.00   0.02   0.02     0.03   0.02   0.14
  37   1    -0.02  -0.01  -0.02    -0.01  -0.02   0.02    -0.13  -0.04   0.08
  38   1    -0.20  -0.03  -0.14     0.06  -0.01   0.04    -0.03  -0.04   0.03
  39   1    -0.20  -0.03   0.09     0.06  -0.01  -0.05    -0.03  -0.07   0.02
  40   1     0.09   0.02   0.08    -0.05  -0.03  -0.05    -0.10   0.05  -0.06
  41   1     0.10  -0.02  -0.12    -0.06  -0.03   0.04    -0.11   0.02   0.02
  42   1    -0.02   0.02   0.01    -0.05   0.05   0.09     0.01  -0.02  -0.11
  43   1    -0.01  -0.02   0.02     0.06  -0.02   0.07    -0.13   0.00  -0.06
  44   1    -0.03   0.12  -0.05    -0.06  -0.03  -0.02    -0.02   0.18  -0.05
  45   1    -0.03   0.09   0.07    -0.05  -0.02  -0.05    -0.04   0.13   0.13
  46   1    -0.02  -0.02  -0.06    -0.02   0.02  -0.03    -0.02  -0.02  -0.05
  47   1     0.02  -0.03   0.02    -0.02   0.03  -0.06     0.05  -0.03   0.04
  48   1     0.02  -0.02  -0.01     0.04   0.01  -0.01     0.01  -0.01  -0.03
  49   1     0.03  -0.02   0.02     0.04   0.01  -0.01     0.01  -0.02  -0.00
  50   1    -0.01   0.01   0.04    -0.01  -0.02   0.01     0.03   0.03  -0.00
  51   1    -0.01   0.02   0.00    -0.02  -0.03   0.03     0.03   0.03  -0.04
  52   1    -0.00  -0.02   0.00    -0.01  -0.00   0.04     0.07   0.01  -0.01
  53   1    -0.00  -0.02   0.02    -0.01   0.01   0.03     0.06   0.01   0.00
  54   1    -0.02   0.08  -0.02     0.02  -0.00  -0.07     0.03   0.04   0.05
  55   1    -0.00  -0.04   0.04     0.10   0.04  -0.02     0.00  -0.02   0.04
  56   1     0.09  -0.00  -0.06     0.08   0.03  -0.00     0.04  -0.00  -0.00
                     22                     23                     24
                        a                      a                      a 
 Frequencies --   204.7019               286.9921               268.4520
 Red. masses --    99.0000                99.0000                99.0000
 Frc consts  --    99.0000                99.0000                99.0000
 IR Inten    --    99.0000                99.0000                99.0000
 Raman Activ --     0.0000                 0.0000                 0.0000
 Depolar     --     0.0000                 0.0000                 0.0000
 Atom AN      X      Y      Z        X      Y      Z        X      Y      Z
   1   6    -0.00  -0.01   0.01     0.02  -0.00  -0.01     0.10   0.11  -0.08
   2   6     0.01   0.04  -0.05    -0.08  -0.02   0.03    -0.04   0.05   0.02
   3   6     0.03   0.00  -0.10    -0.03   0.01   0.09     0.04   0.04   0.04
   4   6     0.15   0.01   0.08    -0.13  -0.02  -0.09     0.00  -0.20   0.00
   5   6     0.08  -0.08   0.15    -0.07   0.06  -0.14     0.00  -0.03   0.05
   6   6     0.02  -0.02   0.10     0.05  -0.02  -0.01    -0.04   0.04   0.01
   7   6     0.08  -0.01  -0.04     0.01  -0.06   0.10    -0.03   0.02  -0.04
   8   6    -0.02  -0.22  -0.23     0.02   0.03   0.09    -0.03   0.01  -0.04
   9   6    -0.05   0.09  -0.09     0.22  -0.14  -0.27    -0.07   0.08   0.05
  10   6    -0.09   0.22   0.23    -0.06   0.05   0.26     0.05   0.05  -0.03
  11   6     0.09   0.23   0.23    -0.02   0.08   0.25     0.20   0.06  -0.04
  12   6     0.04   0.10  -0.11    -0.16  -0.11  -0.24     0.08  -0.01  -0.15
  13   6     0.06  -0.18  -0.23    -0.05   0.08   0.02     0.20  -0.03   0.18
  14   6    -0.08  -0.05  -0.09    -0.02  -0.03   0.02     0.07  -0.10   0.31
  15   6    -0.03  -0.00   0.09     0.01  -0.03  -0.00    -0.13  -0.03   0.05
  16   6    -0.11  -0.07   0.18     0.08   0.03  -0.06    -0.02   0.08  -0.17
  17   6    -0.17  -0.07   0.07     0.12   0.04  -0.01    -0.05  -0.01  -0.24
  18   6    -0.01   0.01  -0.13     0.08   0.02   0.05    -0.33  -0.13   0.07
  19   1    -0.03   0.05  -0.06     0.00   0.05  -0.03    -0.00   0.17  -0.13
  20   1    -0.07  -0.05   0.06    -0.03  -0.03   0.02    -0.09  -0.04   0.08
  21   1     0.09  -0.02   0.03     0.07  -0.03  -0.01     0.20  -0.04  -0.03
  22   1     0.01   0.02  -0.01    -0.04  -0.01  -0.01    -0.03  -0.00  -0.02
  23   1     0.01   0.02  -0.01    -0.04  -0.01   0.03    -0.02   0.01   0.02
  24   1    -0.04   0.02  -0.04     0.05  -0.02   0.04     0.05   0.01   0.01
  25   1     0.03  -0.02  -0.07    -0.02   0.04   0.07     0.01   0.04   0.02
  26   1     0.06   0.02   0.01    -0.06  -0.02  -0.01    -0.01  -0.11   0.05
  27   1     0.07   0.01   0.04    -0.06  -0.01  -0.05     0.01  -0.09  -0.07
  28   1     0.02  -0.04   0.06    -0.03   0.03  -0.05    -0.02   0.02  -0.00
  29   1     0.02  -0.03   0.02    -0.03   0.02  -0.02     0.03   0.00   0.04
  30   1    -0.01   0.01   0.02     0.04  -0.01  -0.00    -0.02   0.02  -0.00
  31   1    -0.01  -0.00   0.04     0.04  -0.01  -0.01    -0.02   0.02   0.02
  32   1     0.01   0.01   0.03    -0.00  -0.03   0.00    -0.01   0.01  -0.02
  33   1     0.07   0.03  -0.04    -0.01  -0.04   0.04    -0.00   0.00  -0.01
  34   1    -0.00  -0.15   0.00    -0.05   0.06  -0.01     0.01  -0.01  -0.00
  35   1    -0.03  -0.10  -0.17     0.01   0.03   0.08    -0.01  -0.00  -0.03
  36   1     0.00  -0.02  -0.02     0.00  -0.23  -0.21    -0.01   0.07   0.04
  37   1    -0.05   0.09  -0.08     0.25   0.07  -0.19    -0.07   0.00   0.04
  38   1    -0.05   0.07   0.03    -0.06   0.09   0.04     0.01  -0.01  -0.03
  39   1    -0.05   0.09   0.10    -0.05   0.01   0.12     0.00   0.04   0.01
  40   1     0.05   0.09   0.11     0.01   0.04   0.10     0.08   0.01   0.03
  41   1     0.05   0.08   0.03     0.02   0.09   0.05     0.09   0.03  -0.05
  42   1     0.00  -0.03  -0.03     0.03  -0.18  -0.17     0.08  -0.06  -0.11
  43   1     0.03   0.10  -0.09    -0.19   0.04  -0.18    -0.06   0.02  -0.09
  44   1     0.02  -0.12  -0.01     0.01   0.08  -0.03     0.10   0.00   0.06
  45   1     0.05  -0.08  -0.14    -0.03   0.05   0.06     0.10  -0.00   0.06
  46   1    -0.02  -0.00  -0.00    -0.01  -0.02  -0.02     0.05  -0.03   0.07
  47   1    -0.07  -0.01  -0.05     0.01  -0.02   0.02     0.03  -0.04   0.10
  48   1     0.00   0.01   0.04    -0.00  -0.01  -0.01    -0.09  -0.02   0.01
  49   1     0.01   0.02   0.02    -0.00  -0.02   0.00    -0.07  -0.02   0.01
  50   1    -0.03  -0.02   0.04     0.03   0.01  -0.01     0.01   0.04  -0.02
  51   1    -0.03  -0.02   0.05     0.02   0.01  -0.02     0.02   0.05  -0.06
  52   1    -0.08  -0.03   0.02     0.04   0.01  -0.00     0.01   0.00  -0.07
  53   1    -0.07  -0.02   0.01     0.05   0.01  -0.00     0.00  -0.01  -0.05
  54   1    -0.04   0.03  -0.09     0.03   0.01   0.03    -0.06   0.02   0.13
  55   1     0.02  -0.01  -0.02     0.02   0.00   0.01    -0.18  -0.10   0.05
  56   1     0.05   0.01  -0.06     0.02   0.00   0.01    -0.13  -0.07  -0.02
                     25                     26                     27
                        a                      a                      a 
 Frequencies --   319.5166               350.7041               383.1641
 Red. masses --    99.0000                99.0000                99.0000
 Frc consts  --    99.0000                99.0000                99.0000
 IR Inten    --    99.0000                99.0000                99.0000
 Raman Activ --     0.0000                 0.0000                 0.0000
 Depolar     --     0.0000                 0.0000                 0.0000
 Atom AN      X      Y      Z        X      Y      Z        X      Y      Z
   1   6    -0.05  -0.21   0.08    -0.05  -0.19   0.06    -0.02  -0.09   0.02
   2   6    -0.21  -0.04  -0.08    -0.05   0.01  -0.15     0.03   0.03  -0.12
   3   6     0.21   0.02   0.14     0.28   0.05   0.04     0.16   0.05  -0.02
   4   6     0.05   0.13  -0.12     0.20   0.08  -0.02     0.18  -0.00   0.08
   5   6     0.09   0.11  -0.22     0.12   0.02   0.00     0.09  -0.04   0.11
   6   6     0.21   0.01  -0.03     0.00   0.03  -0.05    -0.15   0.05  -0.12
   7   6     0.01  -0.11   0.23    -0.12   0.01   0.04    -0.21   0.08  -0.10
   8   6    -0.06  -0.16   0.14    -0.23   0.10   0.00    -0.17   0.12   0.03
   9   6     0.02  -0.01  -0.05    -0.24   0.15  -0.00    -0.15  -0.18  -0.06
  10   6    -0.19  -0.01  -0.08     0.09   0.11  -0.08     0.09  -0.07   0.16
  11   6    -0.05   0.08  -0.14     0.13  -0.06   0.06    -0.09  -0.08   0.16
  12   6     0.14   0.19   0.07    -0.23  -0.15  -0.04     0.20  -0.14  -0.04
  13   6     0.12   0.06  -0.02    -0.18  -0.18   0.03     0.16   0.16   0.03
  14   6     0.05   0.02   0.02    -0.12  -0.08   0.03     0.19   0.12  -0.07
  15   6     0.01   0.01   0.01    -0.08  -0.04   0.02     0.13   0.06  -0.10
  16   6    -0.05  -0.01   0.04     0.07   0.03  -0.08    -0.09  -0.05   0.10
  17   6    -0.12  -0.02  -0.04     0.18   0.04   0.03    -0.19  -0.05   0.04
  18   6    -0.14  -0.04  -0.04     0.19   0.05   0.07    -0.14  -0.03  -0.08
  19   1    -0.01  -0.02   0.01    -0.02  -0.08   0.02    -0.01  -0.06   0.01
  20   1    -0.06  -0.16   0.04    -0.03  -0.12   0.02    -0.02  -0.06   0.01
  21   1     0.07  -0.05   0.08     0.01  -0.02   0.09     0.00   0.00   0.06
  22   1    -0.11   0.04  -0.11    -0.04   0.05  -0.09     0.00   0.03  -0.05
  23   1    -0.14  -0.03   0.07    -0.06  -0.02   0.01    -0.01   0.00  -0.02
  24   1     0.17  -0.08   0.11     0.15  -0.05   0.07     0.06  -0.01   0.02
  25   1     0.05   0.15   0.12     0.08   0.13   0.05     0.06   0.06  -0.01
  26   1    -0.02   0.06  -0.05     0.05   0.03  -0.02     0.06  -0.00   0.02
  27   1    -0.02   0.05  -0.01     0.07   0.03   0.01     0.08  -0.00   0.02
  28   1     0.03   0.03  -0.06     0.05   0.00   0.00     0.05  -0.01   0.03
  29   1     0.00   0.03  -0.06     0.03   0.01  -0.00     0.05  -0.01   0.02
  30   1     0.10   0.01  -0.01     0.00   0.01  -0.01    -0.06   0.01  -0.03
  31   1     0.11   0.00  -0.01     0.00   0.01  -0.01    -0.07   0.01  -0.04
  32   1    -0.04  -0.03   0.07    -0.03   0.00   0.00    -0.05   0.02  -0.04
  33   1     0.00  -0.03   0.06    -0.05  -0.00   0.01    -0.09   0.01  -0.02
  34   1    -0.04  -0.08   0.07    -0.07   0.03  -0.00    -0.08   0.11  -0.05
  35   1    -0.06  -0.06  -0.00    -0.09   0.03   0.01     0.00   0.07   0.10
  36   1    -0.01  -0.04  -0.05    -0.07   0.13   0.02    -0.07  -0.10  -0.07
  37   1     0.04   0.01  -0.03    -0.12   0.01   0.04     0.02  -0.02  -0.05
  38   1    -0.10   0.00  -0.08     0.07  -0.00   0.02     0.10  -0.01   0.13
  39   1    -0.09  -0.05   0.03     0.05   0.10  -0.06     0.09   0.04  -0.04
  40   1    -0.02   0.06  -0.04     0.08  -0.09   0.08    -0.10   0.04  -0.05
  41   1    -0.02  -0.02  -0.04     0.09   0.02  -0.04    -0.11  -0.03   0.14
  42   1     0.01   0.15   0.07    -0.04  -0.13  -0.04     0.09  -0.08  -0.05
  43   1     0.13   0.02   0.08    -0.13  -0.01  -0.06    -0.00  -0.02  -0.05
  44   1     0.02  -0.00   0.01    -0.05  -0.07   0.03     0.07   0.13  -0.05
  45   1     0.06   0.01  -0.02    -0.04  -0.06  -0.02    -0.02   0.08   0.09
  46   1     0.01   0.01   0.01    -0.02  -0.02   0.02     0.05   0.03  -0.03
  47   1     0.01   0.01   0.00    -0.05  -0.02   0.00     0.08   0.03  -0.01
  48   1     0.01   0.01   0.01    -0.04  -0.01   0.00     0.06   0.02  -0.03
  49   1     0.01   0.01   0.00    -0.03  -0.01   0.00     0.06   0.01  -0.02
  50   1    -0.01  -0.00   0.01     0.03   0.01  -0.02    -0.04  -0.02   0.02
  51   1    -0.01  -0.00   0.01     0.02   0.01  -0.02    -0.05  -0.02   0.02
  52   1    -0.04  -0.01  -0.01     0.07   0.01   0.00    -0.08  -0.02   0.01
  53   1    -0.04  -0.01  -0.01     0.07   0.01   0.01    -0.07  -0.02   0.00
  54   1    -0.04  -0.01  -0.00     0.05   0.02   0.01    -0.05  -0.01  -0.04
  55   1    -0.05  -0.01  -0.01     0.06   0.02   0.02    -0.03  -0.00  -0.02
  56   1    -0.05  -0.01  -0.01     0.06   0.02   0.02    -0.03  -0.01  -0.02
                     28                     29                     30
                        a                      a                      a 
 Frequencies --   411.9001               422.7585               451.2808
 Red. masses --    99.0000                99.0000                99.0000
 Frc consts  --    99.0000                99.0000                99.0000
 IR Inten    --    99.0000                99.0000                99.0000
 Raman Activ --     0.0000                 0.0000                 0.0000
 Depolar     --     0.0000                 0.0000                 0.0000
 Atom AN      X      Y      Z        X      Y      Z        X      Y      Z
   1   6     0.02   0.22  -0.03     0.01   0.07  -0.00    -0.00  -0.10  -0.01
   2   6    -0.11  -0.04   0.26    -0.05  -0.03   0.11     0.09   0.06  -0.18
   3   6    -0.05  -0.26  -0.11    -0.03  -0.10  -0.01    -0.04   0.17   0.01
   4   6     0.18  -0.03   0.17    -0.02   0.02  -0.04     0.02  -0.07   0.16
   5   6     0.30   0.01  -0.10     0.02   0.03  -0.08     0.03  -0.06   0.12
   6   6     0.11   0.09  -0.30     0.12  -0.02   0.04    -0.17   0.06  -0.16
   7   6    -0.19  -0.02   0.08     0.08  -0.04   0.08    -0.20   0.02  -0.10
   8   6    -0.17  -0.06   0.21    -0.01  -0.00  -0.03     0.05  -0.12   0.19
   9   6    -0.05  -0.03  -0.06    -0.04   0.15   0.01     0.20  -0.13   0.01
  10   6     0.01   0.01  -0.01    -0.05   0.08  -0.09     0.06  -0.07   0.02
  11   6     0.02   0.03  -0.02    -0.02  -0.03  -0.00     0.07   0.16  -0.16
  12   6    -0.02   0.05   0.01    -0.05  -0.10  -0.06    -0.05   0.26  -0.00
  13   6    -0.02  -0.01  -0.04     0.11  -0.07   0.30     0.04  -0.04   0.09
  14   6    -0.05  -0.02   0.01     0.24   0.04   0.07    -0.03  -0.07   0.14
  15   6    -0.02  -0.02   0.05    -0.03   0.07  -0.37    -0.19  -0.02  -0.13
  16   6     0.04   0.01  -0.01    -0.29  -0.08  -0.07    -0.15  -0.02  -0.15
  17   6     0.04   0.01  -0.03    -0.14  -0.08   0.29     0.03  -0.02   0.15
  18   6     0.00  -0.01   0.01     0.14   0.05  -0.04     0.18   0.05   0.03
  19   1     0.03   0.15  -0.01     0.01   0.06  -0.00    -0.01  -0.09   0.00
  20   1     0.02   0.14  -0.00     0.01   0.05   0.00    -0.01  -0.07  -0.01
  21   1     0.01  -0.01  -0.13     0.00  -0.01  -0.05    -0.01   0.02   0.07
  22   1    -0.06   0.01   0.03    -0.03   0.00   0.01     0.06  -0.02   0.00
  23   1    -0.06  -0.01   0.11    -0.03  -0.01   0.05     0.07   0.03  -0.10
  24   1    -0.18   0.04  -0.13    -0.03   0.00  -0.03    -0.01   0.02   0.03
  25   1     0.03  -0.23  -0.17    -0.01  -0.07  -0.02     0.01   0.08  -0.01
  26   1     0.10   0.05  -0.01     0.00   0.03  -0.03    -0.01  -0.07   0.09
  27   1     0.01   0.03   0.12    -0.03   0.02   0.02     0.05  -0.05  -0.02
  28   1     0.14  -0.01  -0.02    -0.00   0.01  -0.02     0.04  -0.02   0.03
  29   1     0.13  -0.00  -0.04    -0.00   0.01  -0.02     0.05  -0.02   0.02
  30   1     0.05   0.02  -0.08     0.05  -0.01   0.01    -0.08   0.02  -0.05
  31   1     0.05   0.03  -0.08     0.05  -0.01   0.01    -0.08   0.02  -0.03
  32   1    -0.11  -0.01   0.02     0.03  -0.01   0.02    -0.10   0.01  -0.02
  33   1    -0.11  -0.01   0.03     0.04  -0.01   0.02    -0.10   0.01  -0.03
  34   1    -0.07  -0.01   0.05     0.01  -0.03   0.01     0.02  -0.04   0.05
  35   1    -0.06  -0.01   0.06    -0.04  -0.01  -0.04     0.04  -0.04   0.04
  36   1    -0.07  -0.04  -0.09     0.01   0.09   0.04     0.01  -0.12  -0.09
  37   1     0.06   0.01  -0.04    -0.06   0.01   0.03     0.17   0.01  -0.05
  38   1     0.01  -0.00   0.00    -0.03   0.03  -0.04    -0.02  -0.03  -0.05
  39   1     0.01   0.01  -0.01    -0.03   0.02  -0.01    -0.01  -0.08   0.04
  40   1     0.01   0.00   0.01     0.01  -0.03   0.02     0.05   0.03  -0.01
  41   1     0.01   0.01  -0.02     0.02  -0.01  -0.03     0.04   0.08  -0.07
  42   1    -0.02   0.03   0.02     0.08  -0.09  -0.12    -0.02   0.13   0.02
  43   1     0.02   0.01   0.02    -0.14  -0.00  -0.08     0.03   0.04   0.04
  44   1    -0.01  -0.02  -0.00     0.05  -0.01   0.08    -0.00  -0.08   0.08
  45   1     0.01  -0.01  -0.03     0.03  -0.02   0.08     0.09  -0.03  -0.04
  46   1    -0.02  -0.01   0.00     0.14   0.03   0.03     0.02  -0.01   0.04
  47   1    -0.03  -0.01   0.00     0.14   0.03   0.02     0.01  -0.01   0.04
  48   1    -0.01  -0.01   0.01    -0.02   0.02  -0.10    -0.09  -0.01  -0.03
  49   1    -0.01  -0.01   0.01    -0.02   0.02  -0.11    -0.09  -0.01  -0.05
  50   1     0.02   0.01   0.00    -0.15  -0.04  -0.04    -0.07  -0.01  -0.05
  51   1     0.02   0.01  -0.00    -0.15  -0.05  -0.02    -0.07  -0.02  -0.04
  52   1     0.01   0.00  -0.01    -0.04  -0.03   0.08     0.03  -0.00   0.03
  53   1     0.01   0.00  -0.01    -0.05  -0.02   0.07     0.02  -0.00   0.05
  54   1     0.01   0.00   0.02    -0.03   0.00  -0.14     0.01   0.01  -0.06
  55   1    -0.01  -0.01   0.01     0.12   0.05  -0.01     0.10   0.03   0.01
  56   1    -0.01  -0.00   0.00     0.12   0.04  -0.00     0.10   0.03   0.01
                     31                     32                     33
                        a                      a                      a 
 Frequencies --   487.2481               525.4954               508.3982
 Red. masses --    99.0000                99.0000                99.0000
 Frc consts  --    99.0000                99.0000                99.0000
 IR Inten    --    99.0000                99.0000                99.0000
 Raman Activ --     0.0000                 0.0000                 0.0000
 Depolar     --     0.0000                 0.0000                 0.0000
 Atom AN      X      Y      Z        X      Y      Z        X      Y      Z
   1   6     0.01  -0.08  -0.02     0.00  -0.04  -0.02     0.01  -0.07  -0.03
   2   6     0.06   0.06  -0.15     0.01   0.02  -0.06     0.03   0.04  -0.12
   3   6    -0.18   0.19   0.04    -0.19   0.12   0.05    -0.24   0.18   0.06
   4   6    -0.06  -0.09   0.21    -0.09  -0.04   0.10    -0.10  -0.08   0.19
   5   6     0.12  -0.03  -0.01     0.12   0.01  -0.12     0.16  -0.01  -0.11
   6   6     0.05   0.04  -0.15     0.25  -0.02   0.02     0.22   0.00  -0.06
   7   6    -0.07  -0.04   0.05     0.17   0.00   0.09     0.09  -0.04   0.12
   8   6     0.03  -0.09   0.16    -0.11   0.09  -0.17    -0.07   0.04  -0.02
   9   6     0.15   0.24   0.01    -0.31  -0.31  -0.05    -0.11   0.10  -0.03
  10   6    -0.06   0.13  -0.15     0.07  -0.15   0.12    -0.08   0.07  -0.01
  11   6    -0.06  -0.07   0.00     0.06   0.14  -0.07    -0.02  -0.11   0.11
  12   6    -0.20  -0.12   0.01    -0.20   0.24   0.00     0.32  -0.19  -0.02
  13   6    -0.09  -0.10   0.10    -0.05  -0.04   0.10     0.11   0.11  -0.16
  14   6     0.16   0.06  -0.14     0.09   0.00  -0.01    -0.17  -0.03   0.08
  15   6     0.27   0.07   0.02     0.09   0.02  -0.02    -0.23  -0.06   0.03
  16   6     0.12   0.00   0.18     0.03  -0.00   0.05    -0.08   0.00  -0.14
  17   6    -0.07  -0.00  -0.08    -0.03  -0.00  -0.01     0.06   0.01   0.04
  18   6    -0.17  -0.04  -0.05    -0.04  -0.01  -0.02     0.12   0.03   0.04
  19   1    -0.01  -0.08   0.00     0.00  -0.04   0.00    -0.00  -0.07   0.00
  20   1    -0.01  -0.06  -0.01     0.00  -0.03  -0.01    -0.00  -0.06  -0.02
  21   1    -0.00   0.02   0.06    -0.00   0.01   0.02    -0.00   0.01   0.05
  22   1     0.06  -0.05   0.04     0.03  -0.05   0.04     0.06  -0.07   0.05
  23   1     0.08   0.05  -0.12     0.05   0.03  -0.07     0.09   0.05  -0.11
  24   1    -0.09   0.04   0.03    -0.09   0.03   0.02    -0.12   0.05   0.03
  25   1    -0.02   0.05  -0.03    -0.04   0.02  -0.02    -0.04   0.03  -0.03
  26   1    -0.06  -0.09   0.12    -0.07  -0.06   0.08    -0.08  -0.09   0.12
  27   1     0.01  -0.07  -0.03    -0.03  -0.04  -0.04    -0.02  -0.07  -0.05
  28   1     0.08  -0.02   0.00     0.05  -0.01  -0.03     0.08  -0.01  -0.02
  29   1     0.08  -0.01  -0.01     0.05  -0.00  -0.04     0.08  -0.01  -0.04
  30   1     0.02   0.02  -0.05     0.11  -0.01   0.01     0.10   0.00  -0.02
  31   1     0.02   0.02  -0.03     0.10  -0.01  -0.00     0.09   0.00  -0.01
  32   1    -0.06  -0.01   0.02     0.09   0.00   0.03     0.03  -0.01   0.03
  33   1    -0.05  -0.01   0.02     0.09   0.01   0.01     0.03  -0.01   0.03
  34   1     0.04  -0.11   0.10    -0.11   0.14  -0.13    -0.03   0.00   0.00
  35   1    -0.06  -0.06  -0.05     0.03   0.08   0.09    -0.05   0.01  -0.01
  36   1     0.02   0.10  -0.02    -0.05  -0.10   0.03    -0.02   0.06   0.02
  37   1     0.05   0.05   0.02    -0.12  -0.07  -0.03    -0.07   0.01   0.01
  38   1    -0.07   0.08  -0.09     0.11  -0.14   0.12    -0.01   0.04   0.01
  39   1    -0.06  -0.02   0.02     0.09   0.05  -0.07    -0.02   0.05  -0.01
  40   1     0.01  -0.08   0.04     0.07   0.00   0.05    -0.07   0.05  -0.05
  41   1     0.02  -0.02  -0.05     0.07   0.13  -0.07    -0.08  -0.11   0.10
  42   1    -0.01  -0.09  -0.06    -0.04   0.09  -0.01     0.05  -0.06   0.04
  43   1    -0.14  -0.02  -0.04    -0.06   0.05   0.02     0.13  -0.04  -0.01
  44   1    -0.04  -0.04   0.03    -0.06  -0.10   0.09     0.08   0.13  -0.11
  45   1    -0.05  -0.04   0.01     0.06  -0.04  -0.06    -0.03   0.07   0.07
  46   1     0.07   0.03  -0.03     0.05   0.00  -0.01    -0.09  -0.02   0.02
  47   1     0.06   0.02  -0.04     0.05  -0.00   0.01    -0.08  -0.01   0.01
  48   1     0.12   0.03   0.01     0.04   0.01   0.00    -0.09  -0.03  -0.00
  49   1     0.13   0.03   0.01     0.04   0.01  -0.01    -0.10  -0.03   0.01
  50   1     0.05   0.00   0.05     0.01   0.00   0.02    -0.03  -0.00  -0.04
  51   1     0.05   0.01   0.05     0.01   0.00   0.01    -0.03  -0.01  -0.03
  52   1    -0.05  -0.00  -0.02    -0.02  -0.00  -0.00     0.04   0.01   0.01
  53   1    -0.04  -0.01  -0.03    -0.01  -0.00  -0.00     0.04   0.00   0.02
  54   1    -0.02  -0.01   0.03    -0.01  -0.00   0.00     0.02   0.01  -0.02
  55   1    -0.08  -0.02  -0.02    -0.02  -0.00  -0.01     0.05   0.02   0.01
  56   1    -0.08  -0.02  -0.02    -0.02  -0.00  -0.01     0.05   0.01   0.01
                     34                     35                     36
                        a                      a                      a 
 Frequencies --   743.7142               761.8747               766.8502
 Red. masses --    99.0000                99.0000                99.0000
 Frc consts  --    99.0000                99.0000                99.0000
 IR Inten    --    99.0000                99.0000                99.0000
 Raman Activ --     0.0000                 0.0000                 0.0000
 Depolar     --     0.0000                 0.0000                 0.0000
 Atom AN      X      Y      Z        X      Y      Z        X      Y      Z
   1   6     0.00  -0.00  -0.00     0.01  -0.06  -0.05    -0.00   0.01   0.00
   2   6     0.01  -0.00   0.00     0.15  -0.05   0.03    -0.02   0.00   0.00
   3   6     0.01   0.00   0.01     0.15   0.07   0.09    -0.01  -0.01  -0.01
   4   6     0.01   0.01   0.01     0.01   0.17   0.04    -0.00  -0.01  -0.01
   5   6    -0.00   0.01  -0.00    -0.05   0.13  -0.02     0.01   0.01   0.01
   6   6    -0.01   0.00  -0.01    -0.03   0.03   0.04     0.01   0.05   0.03
   7   6    -0.04  -0.05   0.04    -0.01   0.00   0.00     0.02   0.10   0.01
   8   6    -0.03  -0.10  -0.05     0.01  -0.01  -0.01    -0.01   0.10   0.03
   9   6     0.08  -0.09  -0.10     0.01   0.00   0.00    -0.06   0.02   0.04
  10   6     0.15  -0.02  -0.09     0.01   0.00   0.01    -0.04  -0.04  -0.00
  11   6     0.14   0.03   0.09    -0.01   0.00  -0.00     0.03  -0.04  -0.00
  12   6     0.06   0.09   0.10    -0.01  -0.01  -0.01     0.05   0.02   0.04
  13   6    -0.04   0.09   0.04     0.00  -0.02  -0.00    -0.00   0.10   0.02
  14   6    -0.05   0.05  -0.04     0.01  -0.01   0.00    -0.04   0.11   0.01
  15   6    -0.01  -0.00   0.01     0.00  -0.00  -0.00    -0.03   0.09   0.03
  16   6     0.00  -0.01   0.00    -0.00   0.00   0.00    -0.03   0.06   0.01
  17   6     0.01  -0.00  -0.01    -0.00   0.01   0.00    -0.01   0.03   0.00
  18   6     0.00   0.00   0.00    -0.00   0.00   0.00    -0.00   0.00  -0.00
  19   1    -0.01  -0.01  -0.01    -0.10  -0.12  -0.13     0.01   0.02   0.02
  20   1    -0.00   0.00   0.00    -0.06   0.07   0.09     0.01  -0.01  -0.01
  21   1    -0.00   0.00   0.00    -0.05   0.02   0.01     0.01  -0.01  -0.00
  22   1    -0.01   0.00  -0.02    -0.14   0.03  -0.25     0.01  -0.00   0.03
  23   1    -0.01  -0.00   0.02    -0.16  -0.05   0.25     0.02   0.00  -0.03
  24   1    -0.01   0.01  -0.00    -0.20   0.12  -0.05     0.02  -0.01   0.00
  25   1     0.01  -0.02  -0.01     0.05  -0.23  -0.09    -0.01   0.02   0.01
  26   1     0.00  -0.02   0.02    -0.03  -0.23   0.26     0.01   0.00  -0.01
  27   1    -0.00  -0.01  -0.02    -0.08  -0.11  -0.33    -0.01   0.00   0.00
  28   1     0.01  -0.01   0.01     0.02  -0.24   0.19    -0.02  -0.05   0.04
  29   1    -0.01  -0.00  -0.02    -0.11  -0.07  -0.32     0.03  -0.02  -0.06
  30   1    -0.02   0.03  -0.02    -0.05  -0.13   0.11     0.03  -0.13   0.10
  31   1     0.02   0.01   0.03     0.02  -0.04  -0.15    -0.03  -0.04  -0.16
  32   1    -0.07   0.04   0.16    -0.02  -0.01  -0.04     0.03  -0.06  -0.25
  33   1     0.02   0.11  -0.08     0.02  -0.04   0.03    -0.01  -0.19   0.15
  34   1    -0.04   0.17  -0.16    -0.00   0.00  -0.01    -0.01  -0.16   0.14
  35   1    -0.02   0.06   0.21     0.01  -0.00  -0.00     0.03  -0.05  -0.21
  36   1     0.06   0.17   0.08     0.01   0.01   0.01    -0.04  -0.08  -0.04
  37   1    -0.17  -0.10   0.05    -0.01  -0.00   0.00     0.09   0.03  -0.02
  38   1    -0.18  -0.01  -0.29    -0.00   0.01   0.00     0.04  -0.06   0.04
  39   1    -0.15  -0.02   0.26     0.00  -0.01   0.00     0.03   0.02  -0.06
  40   1    -0.14   0.00  -0.25     0.01  -0.00   0.01    -0.02   0.01  -0.04
  41   1    -0.18  -0.00   0.28     0.01   0.01  -0.01    -0.02  -0.07   0.02
  42   1     0.08  -0.15  -0.06    -0.01   0.01   0.01     0.04  -0.06  -0.03
  43   1    -0.16   0.06  -0.06     0.02  -0.00   0.01    -0.07   0.01  -0.02
  44   1    -0.02  -0.15   0.16    -0.00   0.02  -0.02     0.04  -0.15   0.16
  45   1     0.01  -0.07  -0.20     0.00   0.01   0.03    -0.01  -0.07  -0.21
  46   1    -0.04  -0.06  -0.17     0.00   0.01   0.04     0.03  -0.09  -0.31
  47   1     0.03  -0.11   0.09    -0.00   0.02  -0.02     0.01  -0.23   0.21
  48   1     0.03  -0.01  -0.04    -0.01   0.00   0.01     0.07  -0.09  -0.26
  49   1    -0.01  -0.04   0.03     0.00   0.01  -0.01     0.01  -0.21   0.20
  50   1    -0.00  -0.00   0.00     0.01   0.00  -0.00     0.01  -0.07  -0.20
  51   1     0.01   0.00   0.00    -0.00  -0.00   0.00     0.04  -0.14   0.15
  52   1    -0.00   0.00   0.01     0.00  -0.01  -0.01     0.05  -0.04  -0.10
  53   1     0.00   0.01  -0.01     0.00  -0.01   0.01    -0.01  -0.08   0.08
  54   1     0.00   0.00   0.00     0.00  -0.00  -0.00     0.00  -0.01  -0.00
  55   1    -0.00   0.00  -0.00     0.01  -0.00   0.00     0.02  -0.01   0.02
  56   1     0.00   0.00   0.00    -0.01  -0.00  -0.01    -0.01  -0.02  -0.03
                     37                     38                     39
                        a                      a                      a 
 Frequencies --   772.8726               783.7677               799.2062
 Red. masses --    99.0000                99.0000                99.0000
 Frc consts  --    99.0000                99.0000                99.0000
 IR Inten    --    99.0000                99.0000                99.0000
 Raman Activ --     0.0000                 0.0000                 0.0000
 Depolar     --     0.0000                 0.0000                 0.0000
 Atom AN      X      Y      Z        X      Y      Z        X      Y      Z
   1   6     0.00  -0.00  -0.01    -0.01   0.03   0.03     0.03  -0.01  -0.02
   2   6     0.03  -0.00  -0.00    -0.11   0.01   0.01     0.12   0.01  -0.04
   3   6     0.02   0.01   0.01    -0.06  -0.05  -0.06     0.04   0.04   0.06
   4   6     0.00   0.02   0.01     0.02  -0.05  -0.04    -0.04  -0.02   0.05
   5   6    -0.01  -0.01  -0.01     0.04   0.06   0.05    -0.03  -0.11  -0.07
   6   6    -0.01  -0.06  -0.02     0.01   0.14   0.03     0.02  -0.08  -0.01
   7   6    -0.01  -0.09  -0.02    -0.02   0.07   0.04     0.03   0.08   0.01
   8   6     0.02  -0.07  -0.01    -0.03  -0.03  -0.03    -0.03   0.13  -0.00
   9   6     0.04   0.00  -0.02     0.03  -0.05  -0.05    -0.07  -0.00   0.04
  10   6    -0.01   0.04   0.01     0.11  -0.01   0.01     0.03  -0.06   0.00
  11   6    -0.06   0.01  -0.00     0.05   0.06   0.00     0.12   0.02  -0.03
  12   6    -0.04  -0.04  -0.04    -0.04   0.02  -0.01     0.04   0.06   0.07
  13   6     0.02  -0.08  -0.02    -0.02  -0.08   0.01    -0.04   0.04   0.05
  14   6     0.02  -0.02   0.02     0.03  -0.11  -0.02    -0.01  -0.07  -0.06
  15   6    -0.01   0.08   0.02     0.02  -0.04  -0.01     0.02  -0.11  -0.01
  16   6    -0.04   0.14   0.03    -0.01   0.06   0.02    -0.01   0.02   0.01
  17   6    -0.04   0.12   0.02    -0.03   0.09   0.01    -0.03   0.12   0.01
  18   6    -0.01   0.01  -0.01    -0.01   0.01  -0.00    -0.01   0.03   0.00
  19   1    -0.02  -0.02  -0.02     0.06   0.09   0.08    -0.07  -0.11  -0.09
  20   1    -0.01   0.01   0.02     0.04  -0.05  -0.06    -0.04   0.05   0.07
  21   1    -0.00   0.01   0.00     0.04  -0.03  -0.03    -0.04   0.04   0.04
  22   1    -0.02   0.01  -0.04     0.07  -0.01   0.15    -0.08   0.01  -0.16
  23   1    -0.02  -0.01   0.03     0.09   0.01  -0.14    -0.09   0.01   0.13
  24   1    -0.03   0.02  -0.01     0.11  -0.06   0.02    -0.10   0.06  -0.02
  25   1     0.01  -0.03  -0.02    -0.02   0.11   0.05     0.02  -0.10  -0.04
  26   1    -0.02  -0.01   0.02     0.07   0.02  -0.04    -0.10   0.05  -0.02
  27   1     0.00  -0.00  -0.01    -0.02   0.01   0.03     0.04   0.02   0.07
  28   1     0.02   0.05  -0.04    -0.05  -0.13   0.12     0.01   0.17  -0.17
  29   1    -0.03   0.02   0.06     0.08  -0.05  -0.16    -0.03   0.05   0.22
  30   1    -0.03   0.13  -0.10     0.00  -0.23   0.19     0.09   0.10  -0.09
  31   1     0.03   0.04   0.16    -0.02  -0.06  -0.30    -0.05   0.03   0.15
  32   1    -0.01   0.05   0.22    -0.09  -0.04  -0.17     0.09  -0.03  -0.13
  33   1    -0.00   0.17  -0.14     0.05  -0.15   0.13    -0.05  -0.09   0.09
  34   1     0.03   0.11  -0.10    -0.07   0.01  -0.02    -0.03  -0.14   0.13
  35   1    -0.03   0.04   0.15     0.03  -0.00   0.01     0.03  -0.04  -0.20
  36   1     0.02   0.04   0.02     0.03   0.08   0.04    -0.04  -0.08  -0.04
  37   1    -0.04  -0.01   0.01    -0.09  -0.04   0.02     0.07   0.02  -0.02
  38   1     0.01   0.05   0.03    -0.08   0.01  -0.13    -0.02  -0.11  -0.07
  39   1     0.01  -0.01  -0.01    -0.06  -0.02   0.14    -0.03   0.01   0.06
  40   1     0.04  -0.01   0.08    -0.04  -0.01  -0.09    -0.06   0.02  -0.16
  41   1     0.05   0.05  -0.07    -0.06   0.06   0.09    -0.09  -0.04   0.13
  42   1    -0.04   0.07   0.03    -0.02   0.01   0.01     0.06  -0.09  -0.05
  43   1     0.08  -0.02   0.02     0.01   0.01   0.00    -0.12   0.03  -0.03
  44   1     0.01   0.08  -0.09    -0.07   0.09  -0.11    -0.09  -0.04   0.04
  45   1    -0.01   0.03   0.11     0.02   0.05   0.16     0.03  -0.00  -0.03
  46   1     0.07   0.01   0.02    -0.02   0.07   0.23    -0.10   0.02   0.13
  47   1    -0.05  -0.01  -0.01    -0.02   0.17  -0.17     0.03   0.12  -0.11
  48   1    -0.01  -0.08  -0.21    -0.07   0.02   0.08    -0.07   0.04   0.18
  49   1     0.08  -0.14   0.17     0.06   0.08  -0.06     0.03   0.13  -0.13
  50   1     0.08  -0.11  -0.34     0.07  -0.02  -0.10     0.09   0.01  -0.02
  51   1     0.01  -0.26   0.26    -0.04  -0.09   0.08    -0.07  -0.05   0.02
  52   1     0.11  -0.10  -0.28     0.05  -0.07  -0.18     0.04  -0.08  -0.20
  53   1    -0.01  -0.21   0.24     0.01  -0.12   0.15     0.03  -0.13   0.17
  54   1     0.01  -0.04  -0.01     0.01  -0.03  -0.00     0.02  -0.05  -0.00
  55   1     0.09  -0.05   0.08     0.07  -0.03   0.06     0.10  -0.04   0.09
  56   1    -0.06  -0.07  -0.10    -0.05  -0.05  -0.08    -0.07  -0.07  -0.10
                     40                     41                     42
                        a                      a                      a 
 Frequencies --   818.4880               856.9317               914.1906
 Red. masses --    99.0000                99.0000                99.0000
 Frc consts  --    99.0000                99.0000                99.0000
 IR Inten    --    99.0000                99.0000                99.0000
 Raman Activ --     0.0000                 0.0000                 0.0000
 Depolar     --     0.0000                 0.0000                 0.0000
 Atom AN      X      Y      Z        X      Y      Z        X      Y      Z
   1   6     0.04   0.02  -0.01     0.02   0.03   0.02     0.01   0.10   0.04
   2   6     0.12   0.04  -0.08     0.04   0.02  -0.04     0.00   0.02  -0.09
   3   6     0.03  -0.01   0.04    -0.02  -0.05  -0.02     0.01  -0.14  -0.03
   4   6    -0.06  -0.09   0.07    -0.04  -0.03   0.01    -0.04   0.04   0.05
   5   6    -0.02  -0.09  -0.07    -0.01   0.01   0.04    -0.02   0.03   0.02
   6   6     0.00   0.04  -0.00     0.01   0.03  -0.01    -0.01  -0.08  -0.04
   7   6    -0.01   0.09   0.08     0.04  -0.02  -0.04     0.02   0.03   0.01
   8   6    -0.05   0.02  -0.07     0.10  -0.06   0.11     0.07   0.02   0.07
   9   6     0.05  -0.03  -0.06    -0.08  -0.10   0.02    -0.04  -0.15  -0.05
  10   6     0.14  -0.02   0.09    -0.14   0.04  -0.22    -0.03   0.04  -0.14
  11   6     0.01   0.06  -0.03     0.03   0.05   0.09     0.02   0.17   0.03
  12   6    -0.08  -0.05  -0.09     0.13   0.19   0.19     0.10   0.05   0.06
  13   6    -0.02  -0.15  -0.00     0.02  -0.02   0.04    -0.03  -0.24   0.08
  14   6     0.03  -0.01   0.05    -0.03  -0.14  -0.14    -0.07   0.06  -0.06
  15   6    -0.01   0.14  -0.00    -0.07   0.05   0.04    -0.06   0.13   0.01
  16   6     0.00   0.04   0.01    -0.05   0.12   0.04     0.03  -0.20   0.02
  17   6     0.03  -0.12  -0.01     0.05  -0.09  -0.04     0.01   0.04  -0.04
  18   6     0.01  -0.04  -0.01     0.04  -0.06  -0.00     0.01   0.12   0.01
  19   1    -0.07  -0.10  -0.08    -0.02  -0.03  -0.03     0.01   0.01   0.03
  20   1    -0.04   0.05   0.07    -0.01   0.03   0.03     0.00  -0.02  -0.00
  21   1    -0.04   0.06   0.07    -0.02   0.03   0.03     0.02   0.04   0.05
  22   1    -0.07   0.01  -0.16    -0.02   0.00  -0.06     0.01   0.03  -0.01
  23   1    -0.07   0.03   0.11    -0.02   0.03   0.03     0.01   0.00  -0.03
  24   1    -0.05   0.02  -0.01     0.03  -0.03   0.01     0.03  -0.08   0.03
  25   1     0.01  -0.06  -0.02    -0.02   0.02   0.03    -0.01   0.01   0.03
  26   1    -0.09   0.09  -0.07     0.01   0.02  -0.02     0.05  -0.05   0.06
  27   1     0.03   0.03   0.15    -0.02   0.01   0.04    -0.08  -0.01  -0.04
  28   1    -0.04   0.13  -0.12    -0.02  -0.02   0.03     0.07  -0.03   0.03
  29   1     0.05   0.04   0.15     0.02  -0.01  -0.02    -0.07  -0.00  -0.03
  30   1     0.10  -0.04   0.03    -0.02  -0.02   0.02    -0.00   0.06  -0.07
  31   1    -0.07  -0.01  -0.05     0.01  -0.00  -0.03    -0.00   0.01   0.09
  32   1    -0.03  -0.04  -0.16    -0.01   0.01   0.03     0.07  -0.01  -0.04
  33   1     0.01  -0.13   0.13     0.02   0.02  -0.03    -0.08  -0.02   0.03
  34   1    -0.11  -0.01   0.00     0.07   0.00   0.01    -0.04  -0.05   0.06
  35   1     0.03  -0.01  -0.05     0.04  -0.00   0.06     0.09  -0.02  -0.05
  36   1     0.04   0.09   0.05    -0.03  -0.05  -0.02     0.01   0.01   0.02
  37   1    -0.11  -0.03   0.01     0.04  -0.06   0.02    -0.04  -0.09   0.04
  38   1    -0.09   0.02  -0.12     0.07  -0.03   0.06     0.00  -0.00  -0.03
  39   1    -0.06  -0.03   0.18     0.04   0.05  -0.18    -0.00   0.05  -0.04
  40   1    -0.03  -0.02  -0.06     0.00   0.05   0.02    -0.01   0.06  -0.02
  41   1    -0.03   0.14   0.06     0.00  -0.16   0.00    -0.01   0.02   0.02
  42   1    -0.09   0.12   0.06     0.18  -0.20  -0.14     0.08  -0.04  -0.05
  43   1     0.13  -0.05   0.05    -0.24   0.16  -0.13    -0.02   0.10  -0.07
  44   1     0.01   0.12  -0.13    -0.18   0.01  -0.05    -0.08   0.10  -0.13
  45   1    -0.02   0.04   0.18     0.06   0.03   0.08    -0.06   0.03   0.23
  46   1     0.12   0.03   0.04    -0.03   0.05   0.17     0.18   0.03  -0.06
  47   1    -0.07  -0.01  -0.00    -0.09   0.12  -0.18    -0.18  -0.08   0.01
  48   1     0.03  -0.05  -0.21    -0.10  -0.05  -0.09     0.16   0.01  -0.13
  49   1     0.04  -0.13   0.15     0.11  -0.03   0.09    -0.12  -0.12   0.09
  50   1    -0.08  -0.04  -0.07    -0.04  -0.05  -0.16    -0.10   0.02   0.20
  51   1     0.10  -0.02   0.06     0.08  -0.09   0.14     0.04   0.13  -0.14
  52   1    -0.01   0.07   0.18     0.06   0.07   0.13    -0.18  -0.07  -0.07
  53   1    -0.06   0.10  -0.16    -0.10   0.05  -0.13     0.18   0.03   0.04
  54   1    -0.02   0.06   0.01    -0.00   0.08   0.03     0.06  -0.09   0.04
  55   1    -0.12   0.04  -0.10    -0.15   0.04  -0.12     0.16  -0.05   0.15
  56   1     0.08   0.08   0.11     0.09   0.09   0.13    -0.15  -0.11  -0.16
                     43                     44                     45
                        a                      a                      a 
 Frequencies --   834.7953               863.1446               979.3291
 Red. masses --    99.0000                99.0000                99.0000
 Frc consts  --    99.0000                99.0000                99.0000
 IR Inten    --    99.0000                99.0000                99.0000
 Raman Activ --     0.0000                 0.0000                 0.0000
 Depolar     --     0.0000                 0.0000                 0.0000
 Atom AN      X      Y      Z        X      Y      Z        X      Y      Z
   1   6     0.06   0.06   0.01    -0.09  -0.13  -0.06     0.01   0.13   0.10
   2   6     0.12   0.07  -0.12    -0.11  -0.07   0.18    -0.01  -0.06  -0.11
   3   6     0.00  -0.08   0.00     0.09   0.20   0.07    -0.05  -0.14  -0.05
   4   6    -0.10  -0.14   0.09     0.15   0.14  -0.08     0.02   0.19   0.01
   5   6    -0.04  -0.04  -0.01    -0.02  -0.08  -0.06     0.04  -0.13  -0.03
   6   6    -0.02   0.13  -0.03    -0.07  -0.08  -0.01     0.01  -0.00   0.04
   7   6    -0.01   0.02   0.08    -0.07   0.11   0.08     0.01   0.13  -0.02
   8   6     0.09  -0.13   0.02     0.03   0.03   0.00    -0.07  -0.17  -0.05
   9   6     0.10  -0.11  -0.11     0.12  -0.16  -0.14    -0.02   0.15   0.11
  10   6    -0.08   0.04  -0.13     0.01  -0.04  -0.12     0.06   0.00   0.10
  11   6    -0.17  -0.06   0.18    -0.11  -0.03   0.20    -0.07  -0.16  -0.07
  12   6    -0.01   0.06   0.02    -0.04   0.13   0.03    -0.04   0.04   0.07
  13   6     0.09   0.11  -0.08     0.09   0.05  -0.08     0.12   0.10  -0.06
  14   6     0.00   0.05   0.02     0.02  -0.02   0.00     0.04  -0.05  -0.05
  15   6     0.00  -0.08   0.01    -0.01   0.00   0.02    -0.04   0.04   0.06
  16   6    -0.00  -0.05  -0.03    -0.01   0.03  -0.02    -0.03  -0.02  -0.03
  17   6    -0.03   0.06   0.02     0.00  -0.02   0.00     0.00  -0.03  -0.02
  18   6    -0.01   0.03   0.01    -0.00  -0.01   0.00     0.00   0.05   0.02
  19   1    -0.07  -0.11  -0.08     0.08   0.11   0.09     0.02   0.06   0.05
  20   1    -0.04   0.07   0.08     0.04  -0.11  -0.12     0.01   0.03   0.01
  21   1    -0.04   0.09   0.09     0.05  -0.11  -0.10     0.02   0.03   0.03
  22   1    -0.07   0.01  -0.17     0.07  -0.00   0.18     0.01   0.03  -0.02
  23   1    -0.06   0.06   0.10     0.04  -0.13  -0.08     0.00  -0.01  -0.03
  24   1     0.02  -0.03   0.01    -0.13   0.14  -0.05    -0.02  -0.15   0.10
  25   1    -0.00  -0.01   0.01     0.05  -0.10  -0.09    -0.03   0.03   0.04
  26   1    -0.05   0.10  -0.10    -0.04  -0.06   0.08     0.02  -0.10   0.13
  27   1    -0.00   0.04   0.20     0.09  -0.03  -0.16    -0.03  -0.04  -0.18
  28   1    -0.08   0.04  -0.04     0.05   0.09  -0.10     0.19   0.07  -0.09
  29   1     0.10   0.01   0.06    -0.10   0.02   0.11    -0.16   0.01   0.13
  30   1     0.03  -0.11   0.09     0.07   0.07  -0.07     0.25  -0.02   0.00
  31   1    -0.04  -0.02  -0.17    -0.11   0.02   0.11    -0.26   0.00   0.01
  32   1    -0.11  -0.01  -0.05     0.01  -0.03  -0.14    -0.18   0.00  -0.11
  33   1     0.05  -0.06   0.06    -0.09  -0.11   0.12     0.22  -0.08   0.06
  34   1    -0.04   0.08  -0.08    -0.13  -0.05   0.05     0.04   0.11  -0.13
  35   1     0.04   0.02   0.14     0.08  -0.02  -0.07    -0.04   0.03   0.17
  36   1     0.09   0.15   0.10     0.10   0.17   0.11    -0.06  -0.03  -0.07
  37   1    -0.16  -0.13   0.07    -0.16  -0.17   0.10     0.04   0.16  -0.08
  38   1     0.05   0.16   0.10     0.00   0.12   0.00    -0.02   0.00  -0.01
  39   1     0.06  -0.02  -0.16     0.01  -0.04  -0.05    -0.00  -0.10   0.05
  40   1     0.08  -0.02   0.24     0.04  -0.03   0.15     0.02  -0.12   0.03
  41   1     0.11  -0.05  -0.14     0.05  -0.01  -0.04     0.03  -0.05  -0.07
  42   1     0.01  -0.00  -0.01     0.01  -0.01  -0.02     0.05  -0.01  -0.04
  43   1    -0.01   0.06  -0.04    -0.03   0.10  -0.05    -0.11  -0.02   0.02
  44   1     0.08  -0.04   0.05     0.01   0.01  -0.03    -0.04  -0.03   0.01
  45   1     0.03  -0.02  -0.13     0.06   0.02  -0.02     0.10   0.02  -0.06
  46   1    -0.05  -0.03  -0.07    -0.01   0.00   0.03    -0.02   0.01   0.05
  47   1     0.04  -0.04   0.06    -0.02   0.02  -0.03    -0.03   0.03  -0.06
  48   1     0.01   0.03   0.10    -0.03  -0.01  -0.01    -0.05  -0.03  -0.05
  49   1    -0.06   0.05  -0.07     0.01  -0.00   0.01     0.04  -0.02   0.06
  50   1     0.04   0.03   0.07    -0.01  -0.01  -0.03    -0.11  -0.02  -0.00
  51   1    -0.06   0.03  -0.07     0.01  -0.01   0.02     0.08   0.03  -0.01
  52   1    -0.01  -0.04  -0.10     0.01   0.01   0.03    -0.08  -0.02   0.01
  53   1     0.05  -0.05   0.09    -0.02   0.01  -0.02     0.08   0.04  -0.02
[...]
 Frequencies --  2985.8695              2973.4843              3013.1534
 Red. masses --    99.0000                99.0000                99.0000
 Frc consts  --    99.0000                99.0000                99.0000
 IR Inten    --    99.0000                99.0000                99.0000
 Raman Activ --     0.0000                 0.0000                 0.0000
 Depolar     --     0.0000                 0.0000                 0.0000
 Atom AN      X      Y      Z        X      Y      Z        X      Y      Z
   1   6     0.00  -0.00   0.00     0.00   0.00  -0.00    -0.00   0.00  -0.00
   2   6    -0.01   0.01  -0.03    -0.03   0.01   0.01     0.00  -0.00   0.00
   3   6     0.00  -0.00   0.00    -0.04   0.05   0.01     0.00  -0.00   0.00
   4   6     0.00   0.00   0.05    -0.00   0.01   0.00    -0.00  -0.00   0.00
   5   6     0.00  -0.04   0.02    -0.00  -0.01  -0.00    -0.00  -0.01   0.00
   6   6    -0.00  -0.03  -0.02    -0.00  -0.02  -0.01     0.00  -0.01   0.00
   7   6    -0.00  -0.08  -0.02    -0.00  -0.01  -0.03    -0.00  -0.04   0.02
   8   6    -0.01  -0.06  -0.16    -0.00  -0.02   0.01    -0.00  -0.01  -0.00
   9   6     0.01  -0.03  -0.05    -0.02  -0.02  -0.01    -0.02  -0.00   0.02
  10   6    -0.00   0.00  -0.02     0.01  -0.00   0.01    -0.15  -0.04   0.14
  11   6     0.01  -0.01   0.03     0.04   0.00  -0.02    -0.10   0.01  -0.06
  12   6    -0.01   0.02   0.02     0.06  -0.04   0.00    -0.01   0.01  -0.00
  13   6    -0.02   0.04   0.06     0.00   0.00  -0.01    -0.01   0.02   0.02
  14   6    -0.01   0.06  -0.02    -0.02   0.04   0.06    -0.00   0.02  -0.00
  15   6    -0.01   0.03  -0.00    -0.02   0.11  -0.03    -0.00   0.01   0.00
  16   6    -0.00   0.02  -0.01    -0.04   0.12   0.04    -0.00   0.00   0.00
  17   6    -0.00   0.01  -0.00    -0.04   0.13  -0.00    -0.00   0.00   0.00
  18   6    -0.00  -0.00   0.00     0.01  -0.02  -0.00     0.00  -0.00  -0.00
  19   1    -0.00   0.00   0.00    -0.01   0.00   0.00     0.00  -0.00  -0.00
  20   1    -0.01   0.00  -0.01    -0.00   0.00  -0.00     0.01  -0.00   0.01
  21   1     0.00   0.01  -0.00    -0.00  -0.01   0.00    -0.00  -0.00   0.00
  22   1    -0.07   0.01   0.04     0.08  -0.01  -0.06    -0.00   0.00   0.00
  23   1     0.12  -0.04   0.09     0.02  -0.01   0.02    -0.01   0.00  -0.00
  24   1     0.00   0.00   0.01    -0.03  -0.13  -0.14     0.00   0.00   0.00
  25   1    -0.02   0.00  -0.01     0.16  -0.04   0.12    -0.00   0.00  -0.00
  26   1    -0.02  -0.13  -0.14    -0.00  -0.01  -0.02    -0.00  -0.00  -0.00
  27   1     0.01   0.11  -0.04    -0.00  -0.04   0.02     0.00   0.01  -0.00
  28   1    -0.00  -0.03  -0.02     0.00   0.01   0.02    -0.00  -0.01  -0.01
  29   1     0.00   0.16  -0.05     0.00   0.04  -0.01     0.00   0.03  -0.01
  30   1     0.01   0.06   0.08     0.00   0.02   0.03    -0.00  -0.00   0.00
  31   1     0.00   0.06  -0.02     0.00   0.05  -0.02     0.00   0.03  -0.01
  32   1     0.01   0.22  -0.07    -0.00  -0.03   0.00     0.00   0.16  -0.05
  33   1     0.01   0.08   0.12     0.01   0.07   0.10    -0.00  -0.02  -0.02
  34   1     0.03   0.43   0.54    -0.00  -0.02  -0.02     0.00   0.02   0.02
  35   1    -0.00  -0.21   0.05    -0.00   0.10  -0.03    -0.00   0.03  -0.01
  36   1    -0.04  -0.01   0.02     0.05   0.01  -0.05     0.07   0.01  -0.06
  37   1     0.01   0.11   0.12     0.00   0.07   0.08    -0.00  -0.01  -0.01
  38   1    -0.04  -0.01   0.03     0.01   0.00  -0.01     0.64   0.16  -0.50
  39   1     0.05  -0.00   0.03    -0.04   0.00  -0.03    -0.11  -0.01  -0.03
  40   1     0.07   0.01  -0.03    -0.16  -0.02   0.09     0.01   0.01  -0.02
  41   1    -0.11   0.01  -0.08     0.01   0.00  -0.00     0.32  -0.04   0.26
  42   1     0.00   0.00   0.00    -0.19   0.01  -0.19     0.02   0.00   0.02
  43   1     0.02  -0.06  -0.06    -0.03   0.14   0.17     0.00  -0.02  -0.02
  44   1     0.06  -0.18  -0.21    -0.01   0.03   0.04     0.03  -0.08  -0.09
  45   1    -0.01   0.04  -0.00     0.01  -0.04   0.02    -0.00   0.01   0.00
  46   1     0.04  -0.21   0.08    -0.02   0.07  -0.02     0.01  -0.07   0.03
  47   1     0.00  -0.01  -0.02     0.07  -0.19  -0.22     0.00  -0.01  -0.01
  48   1     0.01  -0.07   0.03     0.07  -0.36   0.16     0.00  -0.01   0.00
  49   1     0.01  -0.02  -0.03     0.01  -0.02  -0.04     0.00  -0.01  -0.01
  50   1     0.01  -0.06   0.03     0.04  -0.20   0.10     0.00  -0.01   0.00
  51   1    -0.00   0.00  -0.00     0.08  -0.21  -0.24     0.00  -0.00  -0.00
  52   1     0.01  -0.04   0.02     0.07  -0.31   0.18     0.00  -0.00   0.00
  53   1     0.00  -0.00  -0.01     0.07  -0.16  -0.17     0.00  -0.00  -0.00
  54   1     0.00   0.00  -0.00     0.00  -0.00  -0.00     0.00   0.00  -0.00
  55   1    -0.00   0.00   0.00    -0.02   0.04   0.04    -0.00   0.00   0.00
  56   1    -0.00   0.01  -0.01    -0.01   0.04  -0.03    -0.00   0.00  -0.00
                    154                    155                    156
                        a                      a                      a 
 Frequencies --  2972.1283              2976.1924              2977.9450
 Red. masses --    99.0000                99.0000                99.0000
 Frc consts  --    99.0000                99.0000                99.0000
 IR Inten    --    99.0000                99.0000                99.0000
 Raman Activ --     0.0000                 0.0000                 0.0000
 Depolar     --     0.0000                 0.0000                 0.0000
 Atom AN      X      Y      Z        X      Y      Z        X      Y      Z
   1   6    -0.01   0.00   0.00    -0.01   0.00  -0.00    -0.00   0.00  -0.00
   2   6     0.05  -0.01  -0.02     0.04  -0.01  -0.01     0.02  -0.01  -0.01
   3   6     0.04  -0.04   0.01     0.05  -0.07  -0.01     0.03  -0.04  -0.01
   4   6     0.00   0.02  -0.01    -0.00  -0.04   0.03    -0.00  -0.02   0.02
   5   6     0.00   0.05   0.07    -0.00  -0.02  -0.06    -0.00  -0.01  -0.04
   6   6     0.00   0.13  -0.08    -0.00  -0.05  -0.00    -0.00  -0.03  -0.01
   7   6     0.00   0.05   0.07    -0.00  -0.04  -0.05    -0.00  -0.01  -0.05
   8   6    -0.00   0.03  -0.00    -0.00  -0.05   0.02    -0.00  -0.04   0.03
   9   6    -0.06  -0.04   0.01    -0.04  -0.05  -0.02    -0.08  -0.07  -0.00
  10   6    -0.04  -0.00  -0.02    -0.01  -0.00  -0.00    -0.06  -0.00  -0.03
  11   6    -0.01  -0.00   0.00     0.04   0.00  -0.02    -0.06  -0.01   0.03
  12   6     0.03  -0.02  -0.00     0.08  -0.07  -0.01    -0.08   0.06  -0.00
  13   6     0.00  -0.01   0.01     0.01  -0.05   0.03    -0.01   0.04  -0.03
  14   6    -0.00   0.00  -0.00     0.01  -0.04  -0.04    -0.01  -0.00   0.05
  15   6    -0.00   0.02  -0.02     0.01  -0.03  -0.01    -0.01   0.02   0.00
  16   6    -0.01   0.01   0.02     0.01  -0.01  -0.05    -0.01   0.02   0.02
  17   6    -0.01   0.02   0.00    -0.00  -0.01   0.03    -0.00   0.02  -0.02
  18   6     0.00  -0.00  -0.00     0.00   0.00   0.00    -0.00  -0.00  -0.00
  19   1     0.01  -0.00  -0.01     0.01  -0.00  -0.01     0.01  -0.00  -0.01
  20   1     0.01  -0.00   0.01     0.01  -0.00   0.01     0.01  -0.00   0.01
  21   1     0.00   0.01  -0.00    -0.00   0.00  -0.00    -0.00   0.00  -0.00
  22   1    -0.15   0.02   0.10    -0.10   0.01   0.07    -0.06   0.01   0.04
  23   1    -0.02   0.01  -0.02    -0.04   0.01  -0.04    -0.03   0.01  -0.02
  24   1     0.02   0.10   0.11     0.04   0.20   0.22     0.02   0.11   0.12
  25   1    -0.18   0.05  -0.13    -0.22   0.05  -0.17    -0.12   0.03  -0.09
  26   1     0.00   0.00  -0.00    -0.01  -0.04  -0.04    -0.00  -0.03  -0.03
  27   1    -0.00  -0.08   0.03     0.01   0.18  -0.08     0.01   0.10  -0.04
  28   1    -0.01  -0.20  -0.26     0.01   0.15   0.19     0.01   0.10   0.12
  29   1     0.00   0.05  -0.00    -0.00  -0.09   0.02    -0.00  -0.07   0.02
  30   1     0.01   0.13   0.14     0.00   0.02   0.04     0.00   0.02   0.04
  31   1    -0.01  -0.58   0.17     0.00   0.14  -0.04     0.00   0.07  -0.02
  32   1     0.00   0.04  -0.00    -0.00   0.00  -0.01    -0.00  -0.10   0.02
  33   1    -0.02  -0.21  -0.29     0.01   0.14   0.18     0.01   0.12   0.15
  34   1    -0.00  -0.00  -0.01    -0.00  -0.03  -0.03    -0.00  -0.04  -0.04
  35   1    -0.00  -0.09   0.03    -0.00   0.19  -0.06    -0.00   0.19  -0.06
  36   1     0.20   0.04  -0.17     0.13   0.02  -0.12     0.27   0.05  -0.24
  37   1    -0.00   0.10   0.13     0.01   0.15   0.18     0.01   0.21   0.25
  38   1    -0.01  -0.00   0.00     0.01   0.00  -0.01    -0.01  -0.00  -0.00
  39   1     0.13  -0.00   0.08     0.02  -0.00   0.01     0.21  -0.00   0.13
  40   1     0.02   0.00  -0.01    -0.14  -0.02   0.08     0.22   0.03  -0.13
  41   1     0.00  -0.00   0.00     0.00   0.00  -0.01    -0.01  -0.00   0.00
  42   1    -0.08   0.00  -0.08    -0.23   0.01  -0.24     0.25  -0.01   0.25
  43   1    -0.02   0.08   0.09    -0.06   0.23   0.27     0.05  -0.21  -0.25
  44   1     0.00  -0.01  -0.01     0.01  -0.03  -0.03    -0.02   0.05   0.05
  45   1    -0.01   0.05  -0.02    -0.03   0.21  -0.09     0.03  -0.19   0.08
  46   1     0.00  -0.01   0.01     0.00   0.00  -0.01    -0.02   0.13  -0.04
  47   1    -0.00   0.00   0.00    -0.04   0.12   0.15     0.04  -0.12  -0.14
  48   1     0.02  -0.11   0.04    -0.01   0.06  -0.03     0.01  -0.06   0.03
  49   1    -0.02   0.05   0.05    -0.02   0.04   0.05     0.01  -0.03  -0.03
  50   1    -0.01   0.03  -0.01     0.02  -0.10   0.04    -0.00   0.01   0.00
  51   1     0.03  -0.07  -0.07    -0.05   0.13   0.14     0.03  -0.08  -0.09
  52   1     0.01  -0.04   0.02    -0.02   0.10  -0.05     0.02  -0.10   0.05
  53   1     0.01  -0.02  -0.02     0.03  -0.07  -0.06    -0.01   0.02   0.02
  54   1    -0.00  -0.00   0.00    -0.00  -0.00   0.00     0.01   0.00  -0.00
  55   1    -0.00   0.01   0.01     0.00  -0.00  -0.00    -0.00   0.01   0.01
  56   1    -0.00   0.00  -0.00     0.00  -0.00   0.00    -0.00   0.01  -0.01
                    157                    158                    159
                        a                      a                      a 
 Frequencies --  3033.6583              2983.3099              2987.1159
 Red. masses --    99.0000                99.0000                99.0000
 Frc consts  --    99.0000                99.0000                99.0000
 IR Inten    --    99.0000                99.0000                99.0000
 Raman Activ --     0.0000                 0.0000                 0.0000
 Depolar     --     0.0000                 0.0000                 0.0000
 Atom AN      X      Y      Z        X      Y      Z        X      Y      Z
   1   6     0.03   0.04  -0.03    -0.00  -0.00  -0.00     0.00  -0.00  -0.00
   2   6     0.00   0.00  -0.00     0.00   0.00  -0.01    -0.01   0.00  -0.00
   3   6    -0.00   0.00  -0.00     0.00  -0.00  -0.00    -0.00   0.01   0.01
   4   6    -0.00   0.00  -0.00    -0.00  -0.01  -0.00     0.00   0.03   0.04
   5   6    -0.00   0.00   0.00     0.00  -0.01   0.01     0.00   0.02   0.00
   6   6     0.00   0.00   0.00    -0.00  -0.01  -0.00    -0.00   0.01  -0.02
   7   6     0.00   0.00   0.00    -0.00   0.00  -0.01    -0.00  -0.02  -0.01
   8   6     0.00   0.00   0.00    -0.00  -0.00  -0.02    -0.00  -0.02  -0.08
   9   6     0.00   0.00   0.00    -0.00  -0.00  -0.00     0.01  -0.01  -0.02
  10   6     0.00   0.00   0.00    -0.01  -0.00   0.01    -0.02  -0.01   0.03
  11   6     0.00  -0.00   0.00     0.01  -0.00   0.01     0.01  -0.00  -0.00
  12   6     0.00  -0.00   0.00    -0.00  -0.01  -0.02     0.01  -0.03  -0.03
  13   6     0.00  -0.00   0.00     0.01  -0.01  -0.07     0.03  -0.08  -0.13
  14   6     0.00  -0.00   0.00    -0.01   0.04  -0.03     0.03  -0.13   0.03
  15   6     0.00  -0.00   0.00    -0.01   0.01   0.05     0.01  -0.04  -0.03
  16   6     0.00  -0.01   0.01    -0.01   0.01   0.08     0.01  -0.03  -0.01
  17   6     0.00  -0.02   0.02    -0.03   0.01   0.17     0.01  -0.02  -0.03
  18   6    -0.12  -0.21   0.13     0.02   0.00  -0.02    -0.01   0.00   0.00
  19   1    -0.05   0.02   0.03    -0.00   0.00   0.00    -0.01   0.00   0.01
  20   1     0.01   0.00   0.00     0.01  -0.00   0.01    -0.00   0.00  -0.01
  21   1    -0.05  -0.15   0.09     0.00   0.00  -0.00    -0.00  -0.00   0.00
  22   1    -0.01   0.00   0.01    -0.02   0.00   0.01     0.01  -0.00  -0.01
  23   1     0.01  -0.00   0.01     0.01  -0.00   0.01     0.02  -0.00   0.01
  24   1     0.00   0.00   0.00     0.00   0.01   0.01    -0.01  -0.04  -0.04
  25   1     0.00  -0.00   0.00    -0.01   0.00  -0.01     0.01  -0.00   0.01
  26   1     0.00   0.00   0.00     0.00   0.01   0.01    -0.02  -0.14  -0.15
  27   1    -0.00  -0.00   0.00     0.00   0.02  -0.01     0.00   0.04  -0.01
  28   1    -0.00  -0.00  -0.00    -0.00  -0.01  -0.00    -0.00  -0.01  -0.02
  29   1    -0.00  -0.00   0.00     0.00   0.05  -0.02    -0.00  -0.05   0.02
  30   1    -0.00  -0.00  -0.00     0.00   0.00   0.01     0.00   0.03   0.04
  31   1    -0.00  -0.00   0.00     0.00   0.01  -0.00    -0.00  -0.06   0.02
  32   1    -0.00  -0.00   0.00    -0.00  -0.02   0.00     0.00   0.05  -0.02
  33   1    -0.00  -0.00  -0.00     0.00   0.01   0.02     0.00   0.04   0.05
  34   1    -0.00  -0.00  -0.00     0.00   0.04   0.05     0.01   0.21   0.26
  35   1    -0.00  -0.00   0.00     0.00  -0.03   0.01    -0.00  -0.15   0.04
  36   1    -0.00  -0.00   0.00     0.00  -0.00  -0.00    -0.03  -0.01   0.02
  37   1    -0.00  -0.00  -0.00     0.00   0.01   0.01     0.00   0.03   0.03
  38   1     0.00   0.00  -0.00     0.03   0.01  -0.03     0.11   0.03  -0.08
  39   1    -0.00   0.00  -0.00    -0.01   0.00  -0.00    -0.04  -0.00  -0.02
  40   1    -0.00  -0.00   0.00     0.01   0.00  -0.01    -0.04  -0.00   0.02
  41   1    -0.01   0.00  -0.00    -0.03   0.00  -0.03    -0.00   0.00  -0.00
  42   1    -0.00   0.00  -0.00     0.03  -0.00   0.02     0.01  -0.00   0.00
  43   1     0.00   0.00   0.00    -0.01   0.02   0.03    -0.03   0.10   0.11
  44   1     0.00  -0.00  -0.00    -0.06   0.19   0.21    -0.13   0.40   0.45
  45   1    -0.00   0.00  -0.00     0.02  -0.15   0.05     0.02  -0.13   0.03
  46   1    -0.00   0.01  -0.00     0.03  -0.17   0.07    -0.08   0.44  -0.17
  47   1     0.00  -0.00  -0.00    -0.01   0.03   0.02    -0.01   0.03   0.06
  48   1    -0.00   0.01  -0.01    -0.02   0.11  -0.04    -0.01   0.03  -0.02
  49   1     0.00  -0.00  -0.00     0.05  -0.13  -0.14    -0.04   0.11   0.12
  50   1    -0.01   0.04  -0.02    -0.03   0.16  -0.06    -0.01   0.05  -0.03
  51   1     0.01  -0.01  -0.01     0.08  -0.20  -0.21    -0.02   0.05   0.06
  52   1    -0.02   0.08  -0.04    -0.10   0.41  -0.20     0.01  -0.03   0.01
  53   1     0.00  -0.01  -0.01     0.19  -0.44  -0.41    -0.04   0.09   0.09
  54   1     0.63   0.21  -0.36    -0.06  -0.02   0.03     0.01   0.01  -0.01
  55   1    -0.07   0.10   0.14    -0.02   0.06   0.05     0.01  -0.02  -0.02
  56   1    -0.12   0.43  -0.24     0.01  -0.04   0.02     0.00  -0.01   0.00
                    160                    161                    162
                        a                      a                      a 
 Frequencies --  3035.4344              3047.4421              3039.8860
 Red. masses --    99.0000                99.0000                99.0000
 Frc consts  --    99.0000                99.0000                99.0000
 IR Inten    --    99.0000                99.0000                99.0000
 Raman Activ --     0.0000                 0.0000                 0.0000
 Depolar     --     0.0000                 0.0000                 0.0000
 Atom AN      X      Y      Z        X      Y      Z        X      Y      Z
   1   6     0.18   0.15  -0.11     0.16  -0.10  -0.10     0.01   0.00   0.01
   2   6     0.02   0.00  -0.01     0.02  -0.01  -0.01     0.00   0.00   0.00
   3   6    -0.00  -0.00  -0.00     0.00  -0.00  -0.00     0.00  -0.00  -0.00
   4   6    -0.00  -0.00  -0.01    -0.00  -0.01  -0.01    -0.00  -0.00  -0.00
   5   6    -0.00  -0.00  -0.00    -0.00  -0.00  -0.00    -0.00   0.00  -0.00
   6   6    -0.00  -0.00  -0.00    -0.00  -0.00  -0.00    -0.00   0.00  -0.00
   7   6    -0.00  -0.00  -0.00    -0.00  -0.00  -0.00     0.00   0.00  -0.00
   8   6    -0.00  -0.00  -0.00    -0.00  -0.00  -0.00     0.00   0.00  -0.00
   9   6    -0.00  -0.00  -0.00    -0.00  -0.00  -0.00     0.00   0.00  -0.00
  10   6    -0.00  -0.00  -0.00    -0.00   0.00  -0.00     0.00   0.00  -0.00
  11   6    -0.00   0.00  -0.00    -0.00   0.00  -0.00    -0.00   0.00  -0.00
  12   6    -0.00   0.00  -0.00    -0.00   0.00  -0.00     0.00  -0.00  -0.00
  13   6    -0.00   0.00  -0.00     0.00   0.00  -0.00    -0.00   0.00   0.00
  14   6    -0.00   0.00  -0.00    -0.00   0.00   0.00    -0.00   0.00  -0.00
  15   6    -0.00   0.00  -0.00    -0.00   0.00  -0.00    -0.00   0.00  -0.00
  16   6     0.00   0.00  -0.00    -0.00   0.00   0.00     0.00   0.00  -0.01
  17   6     0.00   0.00  -0.01    -0.00   0.00  -0.00    -0.01   0.01  -0.01
  18   6     0.04   0.02  -0.04    -0.01   0.01   0.01    -0.11   0.07  -0.10
  19   1    -0.24   0.08   0.14    -0.77   0.18   0.46     0.01  -0.00  -0.00
  20   1    -0.15   0.09  -0.18     0.12  -0.04   0.07    -0.03   0.01  -0.03
  21   1    -0.23  -0.70   0.43     0.11   0.22  -0.16    -0.00  -0.01   0.00
  22   1    -0.06   0.01   0.04    -0.05   0.01   0.03    -0.00   0.00   0.00
  23   1     0.01  -0.00   0.00    -0.01   0.00  -0.01    -0.00   0.00  -0.00
  24   1     0.00   0.01   0.01     0.00   0.01   0.01     0.00   0.00   0.00
  25   1     0.00  -0.00   0.00    -0.00   0.00  -0.00    -0.00   0.00  -0.00
  26   1     0.00   0.02   0.02     0.00   0.03   0.03     0.00   0.00   0.00
  27   1    -0.00  -0.01   0.00    -0.00   0.00  -0.00    -0.00  -0.00  -0.00
  28   1     0.00   0.00   0.00     0.00   0.00   0.00     0.00   0.00   0.00
  29   1    -0.00   0.01  -0.00    -0.00   0.01  -0.00    -0.00  -0.00   0.00
  30   1     0.00   0.00   0.00     0.00   0.00   0.00     0.00   0.00   0.00
  31   1    -0.00   0.00  -0.00     0.00   0.00  -0.00     0.00  -0.00   0.00
  32   1    -0.00   0.00  -0.00     0.00   0.00  -0.00    -0.00  -0.00   0.00
  33   1     0.00   0.00   0.00     0.00   0.00   0.00     0.00   0.00   0.00
  34   1     0.00   0.00   0.00     0.00   0.00   0.00     0.00   0.00   0.00
  35   1    -0.00   0.00  -0.00     0.00   0.00  -0.00     0.00  -0.00   0.00
  36   1     0.00   0.00  -0.00     0.00   0.00  -0.00    -0.00  -0.00   0.00
  37   1     0.00   0.00   0.00     0.00   0.00   0.00     0.00  -0.00  -0.00
  38   1    -0.00   0.00  -0.00    -0.00  -0.00   0.00    -0.00  -0.00   0.00
  39   1     0.00  -0.00   0.00     0.00  -0.00   0.00    -0.00   0.00  -0.00
  40   1     0.00   0.00  -0.00     0.00   0.00  -0.00    -0.00  -0.00   0.00
  41   1     0.00  -0.00   0.00     0.00  -0.00   0.00     0.00  -0.00   0.00
  42   1     0.00  -0.00   0.00     0.00  -0.00   0.00    -0.00   0.00  -0.00
  43   1     0.00  -0.00  -0.00     0.00  -0.00  -0.00    -0.00   0.00   0.00
  44   1    -0.00   0.00   0.00    -0.00   0.00   0.00     0.00  -0.00  -0.00
  45   1     0.00  -0.00   0.00     0.00  -0.00   0.00     0.00   0.00   0.00
  46   1     0.00  -0.00   0.00     0.00  -0.00   0.00     0.00  -0.01   0.00
  47   1    -0.00   0.00   0.00     0.00  -0.00  -0.00    -0.00   0.00   0.00
  48   1     0.00  -0.00   0.00     0.00  -0.00   0.00     0.00  -0.01   0.00
  49   1    -0.00   0.00   0.00    -0.00   0.00   0.00     0.00   0.00   0.00
  50   1     0.00  -0.01   0.00     0.00  -0.01   0.00     0.00  -0.02   0.01
  51   1    -0.00   0.01   0.01     0.00  -0.00  -0.00    -0.00   0.01   0.01
  52   1     0.00  -0.01   0.00     0.00  -0.01   0.01     0.01  -0.04   0.02
  53   1    -0.01   0.01   0.01     0.00  -0.00  -0.00    -0.00   0.00   0.00
  54   1    -0.16  -0.06   0.09     0.02   0.01  -0.01     0.37   0.15  -0.24
  55   1    -0.01   0.04   0.03     0.01  -0.03  -0.03    -0.11   0.26   0.22
  56   1     0.02  -0.06   0.03     0.00  -0.02   0.02     0.14  -0.67   0.38
