      -----------------------------------------------------------      
     |                   =====================                   |     
     |                           x T B                           |     
     |                   =====================                   |     
     |                         S. Grimme                         |     
     |          Mulliken Center for Theoretical Chemistry        |     
     |                    University of Bonn                     |     
      -----------------------------------------------------------      

   * xtb version 6.6.1 (8d0f1dd) compiled by 'stahn@M-Bot' on 2023-08-01

   xtb is free software: you can redistribute it and/or modify it under
   the terms of the GNU Lesser General Public License as published by
   the Free Software Foundation, either version 3 of the License, or
   (at your option) any later version.
   
   xtb is distributed in the hope that it will be useful,
   but WITHOUT ANY WARRANTY; without even the implied warranty of
   MERCHANTABILITY or FITNESS FOR A PARTICULAR PURPOSE.  See the
   GNU Lesser General Public License for more details.
   
   Cite this work as:
   * C. Bannwarth, E. Caldeweyher, S. Ehlert, A. Hansen, P. Pracht,
     J. Seibert, S. Spicher, S. Grimme, WIREs Comput. Mol. Sci., 2020, 11,
     e01493. DOI: 10.1002/wcms.1493
   
   for GFN2-xTB:
   * C. Bannwarth, S. Ehlert and S. Grimme., J. Chem. Theory Comput., 2019,
     15, 1652-1671. DOI: 10.1021/acs.jctc.8b01176
   for GFN1-xTB:
   * S. Grimme, C. Bannwarth, P. Shushkov, J. Chem. Theory Comput., 2017,
     13, 1989-2009. DOI: 10.1021/acs.jctc.7b00118
   for GFN0-xTB:
   * P. Pracht, E. Caldeweyher, S. Ehlert, S. Grimme, ChemRxiv, 2019, preprint.
     DOI: 10.26434/chemrxiv.8326202.v1
   for GFN-FF:
   * S. Spicher and S. Grimme, Angew. Chem. Int. Ed., 2020, 59, 15665-15673.
     DOI: 10.1002/anie.202004239
   
   for ALPB and GBSA implicit solvation:
   * S. Ehlert, M. Stahn, S. Spicher, S. Grimme, J. Chem. Theory Comput.,
     2021, 17, 4250-4261. DOI: 10.1021/acs.jctc.1c00471
   
   for DFT-D4:
   * E. Caldeweyher, C. Bannwarth and S. Grimme, J. Chem. Phys., 2017,
     147, 034112. DOI: 10.1063/1.4993215
   * E. Caldeweyher, S. Ehlert, A. Hansen, H. Neugebauer, S. Spicher,
     C. Bannwarth and S. Grimme, J. Chem. Phys., 2019, 150, 154122.
     DOI: 10.1063/1.5090222
   * E. Caldeweyher, J.-M. Mewes, S. Ehlert and S. Grimme, Phys. Chem. Chem. Phys.
     2020, 22, 8499-8512. DOI: 10.1039/D0CP00502A
   
   for sTDA-xTB:
   * S. Grimme and C. Bannwarth, J. Chem. Phys., 2016, 145, 054103.
     DOI: 10.1063/1.4959605
   
   in the mass-spec context:
   * V. Asgeirsson, C. Bauer and S. Grimme, Chem. Sci., 2017, 8, 4879.
     DOI: 10.1039/c7sc00601b
   * J. Koopman and S. Grimme, ACS Omega 2019, 4, 12, 15120-15133.
     DOI: 10.1021/acsomega.9b02011
   
   for metadynamics refer to:
   * S. Grimme, J. Chem. Theory Comput., 2019, 155, 2847-2862
     DOI: 10.1021/acs.jctc.9b00143
   
   for SPH calculations refer to:
   * S. Spicher and S. Grimme, J. Chem. Theory Comput., 2021, 17, 1701-1714
     DOI: 10.1021/acs.jctc.0c01306
   
   with help from (in alphabetical order)
   P. Atkinson, C. Bannwarth, F. Bohle, G. Brandenburg, E. Caldeweyher
   M. Checinski, S. Dohm, S. Ehlert, S. Ehrlich, I. Gerasimov, C. Hölzer
   A. Katbashev, J. Koopman, C. Lavigne, S. Lehtola, F. März, M. Müller,
   F. Musil, H. Neugebauer, J. Pisarek, C. Plett, P. Pracht, F. Pultar,
   J. Seibert, P. Shushkov, S. Spicher, M. Stahn, M. Steiner, T. Strunk,
   J. Stückrath, T. Rose, and J. Unsleber
   
 * started run on 2024/04/23 at 12:10:59.038     

           -------------------------------------------------
          |                Calculation Setup                |
           -------------------------------------------------

          program call               : xtb folded.xyz --gfn 2 --ohess -P 4
          coordinate file            : folded.xyz
          omp threads                :                     4

   ID    Z sym.   atoms
    1    6 C      1-18
    2    1 H      19-56

           -------------------------------------------------
          |                 G F N 2 - x T B                 |
           -------------------------------------------------

        Reference                      10.1021/acs.jctc.8b01176
      * Hamiltonian:
        H0-scaling (s, p, d)           1.850000    2.230000    2.230000
        zeta-weighting                 0.500000
      * Dispersion:
        s8                             2.700000
        a1                             0.520000
        a2                             5.000000
        s9                             5.000000
      * Repulsion:
        kExp                           1.500000    1.000000
        rExp                           1.000000
      * Coulomb:
        alpha                          2.000000
        third order                    shell-resolved
        anisotropic                    true
        a3                             3.000000
        a5                             4.000000
        cn-shift                       1.200000
        cn-exp                         4.000000
        max-rad                        5.000000


          ...................................................
          :                      SETUP                      :
          :.................................................:
          :  # basis functions                 110          :
          :  # atomic orbitals                 110          :
          :  # shells                           74          :
          :  # electrons                       110          :
          :  max. iterations                   250          :
          :  Hamiltonian                  GFN2-xTB          :
          :  restarted?                      false          :
          :  GBSA solvation                  false          :
          :  PC potential                    false          :
          :  electronic temp.          300.0000000     K    :
          :  accuracy                    1.0000000          :
          :  -> integral cutoff          0.2500000E+02      :
          :  -> integral neglect         0.1000000E-07      :
          :  -> SCF convergence          0.1000000E-05 Eh   :
          :  -> wf. convergence          0.1000000E-03 e    :
          :  Broyden damping             0.4000000          :
          ...................................................

 iter      E             dE          RMSdq      gap      omega  full diag
   1    -58.6542419 -0.586542E+02  0.251E+00   12.36       0.0  T
   2    -58.7965488 -0.142307E+00  0.138E+00   12.14       1.0  T
   3    -58.7984136 -0.186473E-02  0.725E-01   12.13       1.0  T
   4    -58.7988299 -0.416299E-03  0.845E-02   12.15       1.0  T
   5    -58.7988434 -0.134894E-04  0.428E-02   12.15       1.0  T
   6    -58.7988472 -0.380954E-05  0.419E-03   12.15       3.2  T
   7    -58.7988473 -0.164577E-06  0.138E-03   12.15       9.7  T
   8    -58.7988474 -0.185533E-07  0.318E-04   12.15      42.1  T
   9    -58.7988474 -0.363350E-09  0.145E-04   12.15      92.0  T

   *** convergence criteria satisfied after 9 iterations ***

         #    Occupation            Energy/Eh            Energy/eV
      -------------------------------------------------------------
         1        2.0000           -0.6228377             -16.9483
       ...           ...                  ...                  ...
        49        2.0000           -0.4179054             -11.3718
        50        2.0000           -0.4163069             -11.3283
        51        2.0000           -0.4156199             -11.3096
        52        2.0000           -0.4130313             -11.2392
        53        2.0000           -0.4103183             -11.1653
        54        2.0000           -0.4093708             -11.1395
        55        2.0000           -0.4045958             -11.0096 (HOMO)
        56                          0.0418195               1.1380 (LUMO)
        57                          0.0435761               1.1858
        58                          0.0698268               1.9001
        59                          0.0769448               2.0938
        60                          0.0877337               2.3874
       ...                                ...                  ...
       110                          0.3312211               9.0130
      -------------------------------------------------------------
                  HL-Gap            0.4464154 Eh           12.1476 eV
             Fermi-level           -0.1813881 Eh           -4.9358 eV

 SCC (total)                   0 d,  0 h,  0 min,  0.048 sec
 SCC setup                      ...        0 min,  0.000 sec (  0.849%)
 Dispersion                     ...        0 min,  0.001 sec (  1.267%)
 classical contributions        ...        0 min,  0.000 sec (  0.127%)
 integral evaluation            ...        0 min,  0.002 sec (  5.085%)
 iterations                     ...        0 min,  0.035 sec ( 73.038%)
 molecular gradient             ...        0 min,  0.009 sec ( 18.695%)
 printout                       ...        0 min,  0.000 sec (  0.866%)

         :::::::::::::::::::::::::::::::::::::::::::::::::::::
         ::                     SUMMARY                     ::
         :::::::::::::::::::::::::::::::::::::::::::::::::::::
         :: total energy             -57.959073615662 Eh    ::
         :: gradient norm              0.037798631217 Eh/a0 ::
         :: HOMO-LUMO gap             12.147580584086 eV    ::
         ::.................................................::
         :: SCC energy               -58.798847350486 Eh    ::
         :: -> isotropic ES            0.008549198162 Eh    ::
         :: -> anisotropic ES          0.019294138011 Eh    ::
         :: -> anisotropic XC          0.033937061735 Eh    ::
         :: -> dispersion             -0.043515520829 Eh    ::
         :: repulsion energy           0.838812149521 Eh    ::
         :: add. restraining           0.000000000000 Eh    ::
         :: total charge              -0.000000000000 e     ::
         :::::::::::::::::::::::::::::::::::::::::::::::::::::

      ----------------------------------------------------------- 
     |                   =====================                   |
     |                        A N C O P T                        |
     |                   =====================                   |
     |               Approximate Normal Coordinate               |
     |                Rational Function Optimizer                |
      ----------------------------------------------------------- 

          ...................................................
          :                      SETUP                      :
          :.................................................:
          :   optimization level            normal          :
          :   max. optcycles                   200          :
          :   ANC micro-cycles                  20          :
          :   degrees of freedom               162          :
          :.................................................:
          :   RF solver                   davidson          :
          :   write xtbopt.log                true          :
          :   linear?                        false          :
          :   energy convergence         0.5000000E-05 Eh   :
          :   grad. convergence          0.1000000E-02 Eh/α :
          :   maxmium RF displ.          2.0000000          :
          :   Hlow (freq-cutoff)         0.2000000E-01      :
          :   Hmax (freq-cutoff)         5.0000000          :
          :   S6 in model hess.         70.0000000          :
          ...................................................

generating ANC from model Hessian ...
Using Lindh-Hessian (1995)
 Shifting diagonal of input Hessian by   1.976983242533467E-002
 Lowest  eigenvalues of input Hessian
    0.000000    0.000000    0.000000    0.000000    0.000000    0.000000
    0.020000    0.020262    0.020737    0.020975    0.021935    0.022184
    0.022513    0.023109    0.023602    0.024132    0.025043    0.026467
 Highest eigenvalues
    1.263109    1.273740    1.286606    1.297813    1.325431    1.327975
 

........................................................................
.............................. CYCLE    1 ..............................
........................................................................

 iter      E             dE          RMSdq      gap      omega  full diag
   1    -58.7988474 -0.587988E+02  0.270E-05   12.15       0.0  T
   2    -58.7988474 -0.513722E-11  0.152E-05   12.15     881.9  T
   3    -58.7988474 -0.348166E-12  0.665E-06   12.15    2009.9  T
     SCC iter.                  ...        0 min,  0.006 sec
     gradient                   ...        0 min,  0.009 sec
 * total energy  :   -57.9590736 Eh     change       -0.5783107E-10 Eh
   gradient norm :     0.0377979 Eh/α   predicted     0.0000000E+00 (-100.00%)
   displ. norm   :     0.2203779 α      lambda       -0.4886506E-02
   maximum displ.:     0.1034769 α      in ANC's #74, #75, #73, ...

........................................................................
.............................. CYCLE    2 ..............................
........................................................................

 iter      E             dE          RMSdq      gap      omega  full diag
   1    -58.8153613 -0.588154E+02  0.142E-01   12.27       0.0  T
   2    -58.8153690 -0.763713E-05  0.816E-02   12.27       1.0  T
   3    -58.8153702 -0.125670E-05  0.394E-03   12.27       3.4  T
   4    -58.8153703 -0.881527E-07  0.142E-03   12.27       9.4  T
   5    -58.8153703 -0.302201E-08  0.691E-04   12.27      19.3  T
   6    -58.8153703 -0.855152E-09  0.756E-05   12.27     176.9  T
     SCC iter.                  ...        0 min,  0.010 sec
     gradient                   ...        0 min,  0.009 sec
 * total energy  :   -57.9623485 Eh     change       -0.3274852E-02 Eh
   gradient norm :     0.0166638 Eh/α   predicted    -0.2561937E-02 ( -21.77%)
   displ. norm   :     0.1337404 α      lambda       -0.1034746E-02
   maximum displ.:     0.0477465 α      in ANC's #74, #25, #73, ...

........................................................................
.............................. CYCLE    3 ..............................
........................................................................

 iter      E             dE          RMSdq      gap      omega  full diag
   1    -58.8268308 -0.588268E+02  0.727E-02   12.36       0.0  T
   2    -58.8268353 -0.448591E-05  0.412E-02   12.36       1.0  T
   3    -58.8268356 -0.265220E-06  0.360E-03   12.36       3.7  T
   4    -58.8268356 -0.368836E-07  0.742E-04   12.36      18.0  T
   5    -58.8268356 -0.189084E-08  0.413E-04   12.36      32.4  T
     SCC iter.                  ...        0 min,  0.009 sec
     gradient                   ...        0 min,  0.009 sec
 * total energy  :   -57.9629160 Eh     change       -0.5675802E-03 Eh
   gradient norm :     0.0026070 Eh/α   predicted    -0.5266411E-03 (  -7.21%)
   displ. norm   :     0.0450419 α      lambda       -0.5435817E-04
   maximum displ.:     0.0179977 α      in ANC's #6, #25, #7, ...

........................................................................
.............................. CYCLE    4 ..............................
........................................................................

 iter      E             dE          RMSdq      gap      omega  full diag
   1    -58.8286560 -0.588287E+02  0.967E-03   12.38       0.0  T
   2    -58.8286562 -0.134962E-06  0.551E-03   12.38       2.4  T
   3    -58.8286562 -0.738171E-08  0.706E-04   12.38      18.9  T
   4    -58.8286562 -0.145311E-08  0.172E-04   12.38      77.6  T
     SCC iter.                  ...        0 min,  0.006 sec
     gradient                   ...        0 min,  0.010 sec
 * total energy  :   -57.9629607 Eh     change       -0.4463366E-04 Eh
   gradient norm :     0.0013147 Eh/α   predicted    -0.2865397E-04 ( -35.80%)
   displ. norm   :     0.1441071 α      lambda       -0.7760592E-04
   maximum displ.:     0.0702403 α      in ANC's #6, #7, #25, ...

........................................................................
.............................. CYCLE    5 ..............................
........................................................................

 iter      E             dE          RMSdq      gap      omega  full diag
   1    -58.8305590 -0.588306E+02  0.209E-02   12.42       0.0  T
   2    -58.8305593 -0.305407E-06  0.122E-02   12.42       1.1  T
   3    -58.8305594 -0.489517E-07  0.105E-03   12.42      12.7  T
   4    -58.8305594 -0.110124E-07  0.453E-04   12.42      29.5  T
   5    -58.8305594 -0.109939E-08  0.146E-04   12.42      91.8  T
     SCC iter.                  ...        0 min,  0.008 sec
     gradient                   ...        0 min,  0.009 sec
 * total energy  :   -57.9630205 Eh     change       -0.5982235E-04 Eh
   gradient norm :     0.0035252 Eh/α   predicted    -0.3924956E-04 ( -34.39%)
   displ. norm   :     0.0441614 α      lambda       -0.2878527E-04
   maximum displ.:     0.0267635 α      in ANC's #6, #7, #11, ...

........................................................................
.............................. CYCLE    6 ..............................
........................................................................

 iter      E             dE          RMSdq      gap      omega  full diag
   1    -58.8297611 -0.588298E+02  0.488E-03   12.42       0.0  T
   2    -58.8297611 -0.452685E-07  0.280E-03   12.42       4.8  T
   3    -58.8297611 -0.121911E-08  0.418E-04   12.42      31.9  T
   4    -58.8297611 -0.336804E-09  0.677E-05   12.42     197.3  T
     SCC iter.                  ...        0 min,  0.006 sec
     gradient                   ...        0 min,  0.009 sec
 * total energy  :   -57.9630466 Eh     change       -0.2604990E-04 Eh
   gradient norm :     0.0022919 Eh/α   predicted    -0.1442924E-04 ( -44.61%)
   displ. norm   :     0.2291958 α      lambda       -0.1222870E-03
   maximum displ.:     0.1420269 α      in ANC's #6, #7, #11, ...

........................................................................
.............................. CYCLE    7 ..............................
........................................................................

 iter      E             dE          RMSdq      gap      omega  full diag
   1    -58.8267116 -0.588267E+02  0.226E-02   12.40       0.0  T
   2    -58.8267122 -0.572245E-06  0.132E-02   12.40       1.0  T
   3    -58.8267122 -0.236061E-07  0.135E-03   12.40       9.9  T
   4    -58.8267122 -0.504971E-08  0.301E-04   12.40      44.4  T
   5    -58.8267122 -0.529027E-09  0.136E-04   12.40      97.9  T
     SCC iter.                  ...        0 min,  0.008 sec
     gradient                   ...        0 min,  0.008 sec
 * total energy  :   -57.9631209 Eh     change       -0.7438446E-04 Eh
   gradient norm :     0.0027158 Eh/α   predicted    -0.6435767E-04 ( -13.48%)
   displ. norm   :     0.1043337 α      lambda       -0.2784931E-04
   maximum displ.:     0.0668521 α      in ANC's #6, #7, #11, ...

........................................................................
.............................. CYCLE    8 ..............................
........................................................................

 iter      E             dE          RMSdq      gap      omega  full diag
   1    -58.8264610 -0.588265E+02  0.953E-03   12.39       0.0  T
   2    -58.8264610 -0.134775E-07  0.565E-03   12.39       2.4  T
   3    -58.8264610 -0.375294E-08  0.249E-04   12.39      53.7  T
   4    -58.8264610 -0.477989E-09  0.125E-04   12.39     107.1  T
     SCC iter.                  ...        0 min,  0.008 sec
     gradient                   ...        0 min,  0.008 sec
 * total energy  :   -57.9631432 Eh     change       -0.2223460E-04 Eh
   gradient norm :     0.0028141 Eh/α   predicted    -0.1407952E-04 ( -36.68%)
   displ. norm   :     0.1664104 α      lambda       -0.4499882E-04
   maximum displ.:     0.1079207 α      in ANC's #6, #7, #11, ...

........................................................................
.............................. CYCLE    9 ..............................
........................................................................

 iter      E             dE          RMSdq      gap      omega  full diag
   1    -58.8270549 -0.588271E+02  0.150E-02   12.37       0.0  T
   2    -58.8270550 -0.833569E-07  0.895E-03   12.37       1.5  T
   3    -58.8270550 -0.888267E-08  0.438E-04   12.37      30.5  T
   4    -58.8270550 -0.182656E-08  0.200E-04   12.37      67.0  T
     SCC iter.                  ...        0 min,  0.006 sec
     gradient                   ...        0 min,  0.011 sec
 * total energy  :   -57.9631735 Eh     change       -0.3031635E-04 Eh
   gradient norm :     0.0013383 Eh/α   predicted    -0.2312263E-04 ( -23.73%)
   displ. norm   :     0.1381949 α      lambda       -0.1908020E-04
   maximum displ.:     0.0875204 α      in ANC's #6, #7, #11, ...

........................................................................
.............................. CYCLE   10 ..............................
........................................................................

 iter      E             dE          RMSdq      gap      omega  full diag
   1    -58.8281548 -0.588282E+02  0.126E-02   12.37       0.0  T
   2    -58.8281550 -0.125875E-06  0.746E-03   12.37       1.8  T
   3    -58.8281550 -0.686781E-08  0.550E-04   12.37      24.3  T
   4    -58.8281550 -0.210391E-08  0.178E-04   12.37      74.9  T
     SCC iter.                  ...        0 min,  0.006 sec
     gradient                   ...        0 min,  0.008 sec
 * total energy  :   -57.9631895 Eh     change       -0.1605842E-04 Eh
   gradient norm :     0.0012380 Eh/α   predicted    -0.9623492E-05 ( -40.07%)
   displ. norm   :     0.0339250 α      lambda       -0.7161071E-05
   maximum displ.:     0.0136253 α      in ANC's #17, #7, #14, ...

........................................................................
.............................. CYCLE   11 ..............................
........................................................................

 iter      E             dE          RMSdq      gap      omega  full diag
   1    -58.8283989 -0.588284E+02  0.454E-03   12.38       0.0  T
   2    -58.8283989 -0.646475E-08  0.267E-03   12.38       5.0  T
   3    -58.8283989 -0.171759E-08  0.159E-04   12.38      84.0  T
   4    -58.8283989 -0.215117E-09  0.782E-05   12.38     170.8  T
     SCC iter.                  ...        0 min,  0.008 sec
     gradient                   ...        0 min,  0.009 sec
 * total energy  :   -57.9631978 Eh     change       -0.8227285E-05 Eh
   gradient norm :     0.0010280 Eh/α   predicted    -0.3583993E-05 ( -56.44%)
   displ. norm   :     0.0500835 α      lambda       -0.6901565E-05
   maximum displ.:     0.0226143 α      in ANC's #7, #4, #17, ...

........................................................................
.............................. CYCLE   12 ..............................
........................................................................

 iter      E             dE          RMSdq      gap      omega  full diag
   1    -58.8282661 -0.588283E+02  0.585E-03   12.40       0.0  T
   2    -58.8282661 -0.254025E-07  0.347E-03   12.40       3.8  T
   3    -58.8282661 -0.233007E-08  0.229E-04   12.40      58.4  T
   4    -58.8282661 -0.491163E-09  0.994E-05   12.40     134.4  T
     SCC iter.                  ...        0 min,  0.006 sec
     gradient                   ...        0 min,  0.009 sec
 * total energy  :   -57.9632042 Eh     change       -0.6403011E-05 Eh
   gradient norm :     0.0002985 Eh/α   predicted    -0.3459155E-05 ( -45.98%)
   displ. norm   :     0.0289433 α      lambda       -0.2315972E-05
   maximum displ.:     0.0145876 α      in ANC's #7, #4, #9, ...

........................................................................
.............................. CYCLE   13 ..............................
........................................................................

 iter      E             dE          RMSdq      gap      omega  full diag
   1    -58.8282972 -0.588283E+02  0.296E-03   12.40       0.0  T
   2    -58.8282972 -0.289260E-08  0.176E-03   12.40       7.6  T
   3    -58.8282972 -0.355804E-09  0.962E-05   12.40     138.9  T
   4    -58.8282972 -0.141434E-09  0.442E-05   12.40     302.4  T
     SCC iter.                  ...        0 min,  0.008 sec
     gradient                   ...        0 min,  0.008 sec
 * total energy  :   -57.9632071 Eh     change       -0.2953474E-05 Eh
   gradient norm :     0.0004158 Eh/α   predicted    -0.1160375E-05 ( -60.71%)
   displ. norm   :     0.1126280 α      lambda       -0.8155632E-05
   maximum displ.:     0.0631787 α      in ANC's #7, #4, #6, ...

   *** GEOMETRY OPTIMIZATION CONVERGED AFTER 13 ITERATIONS ***

------------------------------------------------------------------------
 total energy gain   :        -0.0041335 Eh       -2.5938 kcal/mol
 total RMSD          :         0.1342142 a0        0.0710 Å
 total power (kW/mol):        -0.8348110 (step)  -37.3969 (real)
------------------------------------------------------------------------

 ANCopt (total)                0 d,  0 h,  0 min,  0.290 sec
 optimizer setup                ...        0 min,  0.001 sec (  0.273%)
 model hessian                  ...        0 min,  0.032 sec ( 10.982%)
 ANC generation                 ...        0 min,  0.002 sec (  0.723%)
 coordinate transformation      ...        0 min,  0.000 sec (  0.138%)
 single point calculation       ...        0 min,  0.250 sec ( 86.008%)
 optimization log               ...        0 min,  0.002 sec (  0.768%)
 hessian update                 ...        0 min,  0.001 sec (  0.202%)
 rational function              ...        0 min,  0.001 sec (  0.421%)

================
 final structure:
================
56
 xtb: 6.6.1 (8d0f1dd)
C            4.41113319600602       -0.07792603067251       -0.06011277996904
C            4.16504822787226       -1.21905601930741       -1.03934156134091
C            3.87516753951504       -2.55232697243611       -0.34824867798364
C            2.62347655279182       -2.56518334937146        0.53049244112725
C            1.33576653081553       -2.28351335978691       -0.23996287605423
C            0.09664261118148       -2.51488494805119        0.62179172497205
C           -1.19048472097086       -2.19969172121930       -0.13595569630513
C           -2.42981852872398       -2.41620044852612        0.72919295004672
C           -3.74596932522858       -2.18868778380933       -0.01866908553210
C           -3.91352429449956       -0.78529403966471       -0.60384743935136
C           -3.99235426824794        0.30640349065023        0.46110245981628
C           -3.98048885593339        1.71885656782210       -0.12597577487826
C           -2.65656874889192        2.12574147150184       -0.77767306270052
C           -1.48406390617116        2.17312468524501        0.19984447475030
C           -0.20527074187913        2.67126682096580       -0.46908662107936
C            0.95389757181220        2.78093153216268        0.51844938970152
C            2.23309831371784        3.27801599229592       -0.15034745497179
C            3.35105121917774        3.51147864912430        0.85826612846995
H            3.50749504070018        0.15847426186863        0.49503179921437
H            5.19197880384892       -0.34587964670408        0.64875814492752
H            4.72491838134163        0.81711093505875       -0.59245547043187
H            5.05282321727770       -1.34720377392565       -1.66401416762402
H            3.33749285541783       -0.95919925450750       -1.70158391704619
H            3.77188658461307       -3.32508548986724       -1.11458469349671
H            4.73557713549801       -2.81774214173456        0.27173961321443
H            2.72976429168450       -1.83877949000184        1.33807225582602
H            2.54504761856022       -3.55273550674721        0.99326099540855
H            1.28999669603320       -2.93400284928623       -1.11703587568164
H            1.33311715940809       -1.25015227396654       -0.59205795543855
H            0.15396143600388       -1.88423334509936        1.51306010550669
H            0.07689787551699       -3.55479328008149        0.95726856806699
H           -1.14924172839513       -1.16225821602007       -0.47144425687287
H           -1.25361360083592       -2.83454283761099       -1.02328762349599
H           -2.37925507308530       -1.76059657891006        1.60060833211497
H           -2.42291023343125       -3.44404768268033        1.10177144709459
H           -4.57412563624827       -2.38930423248334        0.66591706235574
H           -3.81094694469271       -2.91281360498127       -0.83498604536856
H           -3.08564242462856       -0.58387078815605       -1.28246821164791
H           -4.83056974734387       -0.76291197323980       -1.19861172810714
H           -4.91391546906674        0.17226256497302        1.03351777712281
H           -3.16192349733134        0.20661671584781        1.15847794526161
H           -4.77625542580730        1.79920852620714       -0.87102000378977
H           -4.20499526123150        2.43008484505782        0.67318585336221
H           -2.41783168705795        1.44292222341715       -1.59512758940865
H           -2.78425758359119        3.11878269624817       -1.21682363622426
H           -1.29862692525943        1.17908214464558        0.61001173994878
H           -1.73719338616711        2.83405618677398        1.03268034125117
H           -0.38883656839176        3.65169509608392       -0.91581849930364
H            0.07027829978644        1.98931391165467       -1.27779819237984
H            1.13818574911201        1.80432799243840        0.97333051233494
H            0.67648133010090        3.46948999978099        1.32051866557888
H            2.02226778133717        4.21206168615922       -0.67666206435268
H            2.55853197263983        2.54691391038559       -0.89386402585261
H            4.25670013383761        3.84406120132887        0.35622874078286
H            3.05995046222016        4.27246841906662        1.57928768033095
H            3.57701999528352        2.59614311208456        1.40043483810109
           -------------------------------------------------
          |                Final Singlepoint                |
           -------------------------------------------------

          ...................................................
          :                      SETUP                      :
          :.................................................:
          :  # basis functions                 110          :
          :  # atomic orbitals                 110          :
          :  # shells                           74          :
          :  # electrons                       110          :
          :  max. iterations                   250          :
          :  Hamiltonian                  GFN2-xTB          :
          :  restarted?                      false          :
          :  GBSA solvation                  false          :
          :  PC potential                    false          :
          :  electronic temp.          300.0000000     K    :
          :  accuracy                    1.0000000          :
          :  -> integral cutoff          0.2500000E+02      :
          :  -> integral neglect         0.1000000E-07      :
          :  -> SCF convergence          0.1000000E-05 Eh   :
          :  -> wf. convergence          0.1000000E-03 e    :
          :  Broyden damping             0.4000000          :
          ...................................................

 iter      E             dE          RMSdq      gap      omega  full diag
   1    -58.8282972 -0.588283E+02  0.163E-05   12.40       0.0  T
   2    -58.8282972 -0.632383E-12  0.941E-06   12.40    1420.1  T
   3    -58.8282972  0.568434E-13  0.226E-06   12.40    5909.0  T

   *** convergence criteria satisfied after 3 iterations ***

         #    Occupation            Energy/Eh            Energy/eV
      -------------------------------------------------------------
         1        2.0000           -0.6238057             -16.9746
       ...           ...                  ...                  ...
        49        2.0000           -0.4183659             -11.3843
        50        2.0000           -0.4167187             -11.3395
        51        2.0000           -0.4153802             -11.3031
        52        2.0000           -0.4133994             -11.2492
        53        2.0000           -0.4115701             -11.1994
        54        2.0000           -0.4092980             -11.1376
        55        2.0000           -0.4060989             -11.0505 (HOMO)
        56                          0.0495580               1.3485 (LUMO)
        57                          0.0512253               1.3939
        58                          0.0764807               2.0811
        59                          0.0887121               2.4140
        60                          0.0966025               2.6287
       ...                                ...                  ...
       110                          0.3440331               9.3616
      -------------------------------------------------------------
                  HL-Gap            0.4556569 Eh           12.3991 eV
             Fermi-level           -0.1782705 Eh           -4.8510 eV

 SCC (total)                   0 d,  0 h,  0 min,  0.017 sec
 SCC setup                      ...        0 min,  0.000 sec (  2.284%)
 Dispersion                     ...        0 min,  0.000 sec (  1.407%)
 classical contributions        ...        0 min,  0.000 sec (  0.347%)
 integral evaluation            ...        0 min,  0.002 sec ( 12.355%)
 iterations                     ...        0 min,  0.005 sec ( 30.249%)
 molecular gradient             ...        0 min,  0.009 sec ( 51.077%)
 printout                       ...        0 min,  0.000 sec (  2.090%)

         :::::::::::::::::::::::::::::::::::::::::::::::::::::
         ::                     SUMMARY                     ::
         :::::::::::::::::::::::::::::::::::::::::::::::::::::
         :: total energy             -57.963207131176 Eh    ::
         :: gradient norm              0.000415710083 Eh/a0 ::
         :: HOMO-LUMO gap             12.399054061356 eV    ::
         ::.................................................::
         :: SCC energy               -58.828297172892 Eh    ::
         :: -> isotropic ES            0.009133429204 Eh    ::
         :: -> anisotropic ES          0.018508737829 Eh    ::
         :: -> anisotropic XC          0.034325911257 Eh    ::
         :: -> dispersion             -0.043235022822 Eh    ::
         :: repulsion energy           0.864164704750 Eh    ::
         :: add. restraining           0.000000000000 Eh    ::
         :: total charge              -0.000000000000 e     ::
         :::::::::::::::::::::::::::::::::::::::::::::::::::::

           ------------------------------------------------- 
          |                Numerical Hessian                |
           ------------------------------------------------- 
step length          :   0.00500
SCC accuracy         :   0.30000
Hessian scale factor :   1.00000
frozen atoms in %    :   0.00000    0
RMS gradient         :   0.00042
estimated CPU  time      0.94 min
estimated wall time      0.24 min

writing file <hessian>.

 projected vibrational frequencies (cm⁻¹)
eigval :       -0.00    -0.00     0.00     0.00     0.00     0.00
eigval :        5.91    14.72    23.04    33.07    46.49    55.51
eigval :       65.47    70.80    80.11    91.66   104.89   117.81
eigval :      129.07   132.33   156.61   194.10   204.70   217.73
eigval :      224.74   233.83   237.93   268.45   270.08   286.99
eigval :      319.52   350.70   383.16   411.90   422.76   451.28
eigval :      487.25   508.40   525.50   743.71   761.87   766.85
eigval :      772.87   783.77   799.21   818.49   834.80   856.93
eigval :      863.14   892.19   900.30   914.19   934.11   946.21
eigval :      951.82   979.33   994.42  1001.31  1015.73  1034.93
eigval :     1043.06  1053.13  1060.50  1067.40  1078.85  1084.56
eigval :     1104.86  1105.95  1106.83  1120.29  1128.16  1135.96
eigval :     1146.89  1149.86  1152.82  1156.43  1160.64  1168.08
eigval :     1204.99  1216.31  1228.52  1237.91  1249.68  1251.35
eigval :     1254.74  1267.40  1273.30  1276.83  1280.94  1284.38
eigval :     1292.15  1292.98  1296.42  1297.09  1300.50  1307.31
eigval :     1320.46  1346.72  1349.24  1356.69  1357.85  1363.40
eigval :     1363.82  1373.32  1375.64  1376.37  1378.77  1379.98
eigval :     1414.40  1418.63  1486.92  1488.12  1489.58  1491.76
eigval :     1493.13  1496.18  1496.26  1498.04  1499.03  1500.61
eigval :     1501.63  1502.10  1503.28  1505.00  1505.50  1506.35
eigval :     1507.39  1507.73  1509.46  1519.39  2950.48  2951.33
eigval :     2954.24  2955.16  2955.39  2955.96  2956.27  2957.76
eigval :     2958.50  2959.23  2962.11  2964.17  2965.56  2967.25
eigval :     2970.60  2971.26  2972.13  2973.48  2974.08  2975.21
eigval :     2976.19  2977.95  2982.44  2983.31  2985.87  2987.12
eigval :     2990.11  2991.36  2992.00  2995.19  3013.15  3018.01
eigval :     3029.23  3030.31  3033.66  3035.43  3039.89  3047.44
           -------------------------------------------------
          |                Property Printout                |
           -------------------------------------------------

    * Orbital Energies and Occupations

         #    Occupation            Energy/Eh            Energy/eV
      -------------------------------------------------------------
         1        2.0000           -0.6238057             -16.9746
       ...           ...                  ...                  ...
        43        2.0000           -0.4335831             -11.7984
        44        2.0000           -0.4295445             -11.6885
        45        2.0000           -0.4253669             -11.5748
        46        2.0000           -0.4250101             -11.5651
        47        2.0000           -0.4234448             -11.5225
        48        2.0000           -0.4191569             -11.4058
        49        2.0000           -0.4183659             -11.3843
        50        2.0000           -0.4167187             -11.3395
        51        2.0000           -0.4153802             -11.3031
        52        2.0000           -0.4133994             -11.2492
        53        2.0000           -0.4115701             -11.1994
        54        2.0000           -0.4092980             -11.1376
        55        2.0000           -0.4060989             -11.0505 (HOMO)
        56                          0.0495580               1.3485 (LUMO)
        57                          0.0512253               1.3939
        58                          0.0764807               2.0811
        59                          0.0887121               2.4140
        60                          0.0966025               2.6287
        61                          0.1028495               2.7987
        62                          0.1057547               2.8777
        63                          0.1075735               2.9272
        64                          0.1120197               3.0482
        65                          0.1156646               3.1474
        66                          0.1230171               3.3475
       ...                                ...                  ...
       110                          0.3440331               9.3616
      -------------------------------------------------------------
                  HL-Gap            0.4556569 Eh           12.3991 eV
             Fermi-level           -0.1782705 Eh           -4.8510 eV

     #   Z          covCN         q      C6AA      α(0)
     1   6 C        3.751    -0.100    22.468     6.760
     2   6 C        3.799    -0.052    21.509     6.603
     3   6 C        3.801    -0.057    21.601     6.617
     4   6 C        3.802    -0.057    21.598     6.617
     5   6 C        3.802    -0.057    21.597     6.616
     6   6 C        3.803    -0.057    21.594     6.616
     7   6 C        3.802    -0.058    21.608     6.618
     8   6 C        3.801    -0.056    21.587     6.615
     9   6 C        3.801    -0.057    21.608     6.618
    10   6 C        3.801    -0.059    21.627     6.621
    11   6 C        3.801    -0.059    21.633     6.622
    12   6 C        3.801    -0.058    21.611     6.619
    13   6 C        3.801    -0.056    21.589     6.615
    14   6 C        3.802    -0.057    21.601     6.617
    15   6 C        3.803    -0.057    21.595     6.616
    16   6 C        3.803    -0.057    21.598     6.616
    17   6 C        3.801    -0.053    21.521     6.605
    18   6 C        3.752    -0.102    22.510     6.766
    19   1 H        0.925     0.037     2.489     2.467
    20   1 H        0.925     0.031     2.579     2.511
    21   1 H        0.925     0.032     2.563     2.504
    22   1 H        0.924     0.025     2.657     2.549
    23   1 H        0.924     0.030     2.581     2.512
    24   1 H        0.924     0.026     2.640     2.541
    25   1 H        0.924     0.028     2.614     2.528
    26   1 H        0.924     0.032     2.563     2.504
    27   1 H        0.924     0.026     2.646     2.544
    28   1 H        0.924     0.027     2.623     2.533
    29   1 H        0.924     0.032     2.557     2.501
    30   1 H        0.924     0.025     2.651     2.546
    31   1 H        0.924     0.025     2.653     2.547
    32   1 H        0.924     0.035     2.520     2.482
    33   1 H        0.924     0.027     2.629     2.536
    34   1 H        0.924     0.029     2.604     2.524
    35   1 H        0.924     0.026     2.644     2.543
    36   1 H        0.924     0.027     2.626     2.534
    37   1 H        0.924     0.027     2.623     2.533
    38   1 H        0.925     0.037     2.494     2.470
    39   1 H        0.924     0.025     2.662     2.551
    40   1 H        0.924     0.025     2.660     2.550
    41   1 H        0.925     0.038     2.480     2.463
    42   1 H        0.924     0.027     2.623     2.533
    43   1 H        0.924     0.028     2.620     2.531
    44   1 H        0.924     0.029     2.598     2.521
    45   1 H        0.924     0.026     2.643     2.542
    46   1 H        0.924     0.034     2.536     2.491
    47   1 H        0.924     0.027     2.625     2.534
    48   1 H        0.924     0.026     2.641     2.541
    49   1 H        0.924     0.026     2.641     2.541
    50   1 H        0.924     0.028     2.615     2.529
    51   1 H        0.924     0.029     2.605     2.524
    52   1 H        0.924     0.027     2.625     2.533
    53   1 H        0.924     0.030     2.588     2.516
    54   1 H        0.925     0.031     2.568     2.506
    55   1 H        0.925     0.032     2.556     2.500
    56   1 H        0.925     0.035     2.517     2.481

 Mol. C6AA /au·bohr⁶  :      20985.692739
 Mol. C8AA /au·bohr⁸  :     439439.805094
 Mol. α(0) /au        :        215.172346


Wiberg/Mayer (AO) data.
largest (>0.10) Wiberg bond orders for each atom

 ---------------------------------------------------------------------------
     #   Z sym  total        # sym  WBO       # sym  WBO       # sym  WBO
 ---------------------------------------------------------------------------
     1   6 C    3.997 --     2 C    1.020    20 H    0.988    21 H    0.987
                            19 H    0.985
     2   6 C    3.998 --     1 C    1.020     3 C    1.008    22 H    0.979
                            23 H    0.977
     3   6 C    3.997 --     2 C    1.008     4 C    1.007    24 H    0.978
                            25 H    0.977
     4   6 C    3.997 --     5 C    1.008     3 C    1.007    27 H    0.977
                            26 H    0.976
     5   6 C    3.997 --     4 C    1.008     6 C    1.007    28 H    0.977
                            29 H    0.976
     6   6 C    3.997 --     7 C    1.007     5 C    1.007    30 H    0.978
                            31 H    0.977
     7   6 C    3.997 --     8 C    1.008     6 C    1.007    33 H    0.978
                            32 H    0.973
     8   6 C    3.997 --     7 C    1.008     9 C    1.006    35 H    0.977
                            34 H    0.974
     9   6 C    3.997 --    10 C    1.007     8 C    1.006    37 H    0.978
                            36 H    0.978
    10   6 C    3.997 --    11 C    1.009     9 C    1.007    39 H    0.978
                            38 H    0.970
    11   6 C    3.997 --    10 C    1.009    12 C    1.007    40 H    0.978
                            41 H    0.969
    12   6 C    3.997 --    11 C    1.007    13 C    1.007    43 H    0.978
                            42 H    0.977
    13   6 C    3.997 --    14 C    1.008    12 C    1.007    45 H    0.977
                            44 H    0.974
    14   6 C    3.997 --    13 C    1.008    15 C    1.007    47 H    0.977
                            46 H    0.973
    15   6 C    3.997 --    16 C    1.007    14 C    1.007    49 H    0.978
                            48 H    0.977
    16   6 C    3.997 --    17 C    1.008    15 C    1.007    50 H    0.978
                            51 H    0.977
    17   6 C    3.998 --    18 C    1.019    16 C    1.008    52 H    0.978
                            53 H    0.978
    18   6 C    3.997 --    17 C    1.019    55 H    0.988    54 H    0.988
                            56 H    0.987
    19   1 H    0.999 --     1 C    0.985
    20   1 H    0.999 --     1 C    0.988
    21   1 H    0.999 --     1 C    0.987
    22   1 H    0.999 --     2 C    0.979
    23   1 H    0.999 --     2 C    0.977
    24   1 H    0.999 --     3 C    0.978
    25   1 H    0.999 --     3 C    0.977
    26   1 H    0.999 --     4 C    0.976
    27   1 H    0.999 --     4 C    0.977
    28   1 H    0.999 --     5 C    0.977
    29   1 H    0.999 --     5 C    0.976
    30   1 H    0.999 --     6 C    0.978
    31   1 H    0.999 --     6 C    0.977
    32   1 H    0.999 --     7 C    0.973
    33   1 H    0.999 --     7 C    0.978
    34   1 H    0.999 --     8 C    0.974
    35   1 H    0.999 --     8 C    0.977
    36   1 H    0.999 --     9 C    0.978
    37   1 H    0.999 --     9 C    0.978
    38   1 H    0.999 --    10 C    0.970
    39   1 H    0.999 --    10 C    0.978
    40   1 H    0.999 --    11 C    0.978
    41   1 H    0.999 --    11 C    0.969
    42   1 H    0.999 --    12 C    0.977
    43   1 H    0.999 --    12 C    0.978
    44   1 H    0.999 --    13 C    0.974
    45   1 H    0.999 --    13 C    0.977
    46   1 H    0.999 --    14 C    0.973
    47   1 H    0.999 --    14 C    0.977
    48   1 H    0.999 --    15 C    0.977
    49   1 H    0.999 --    15 C    0.978
    50   1 H    0.999 --    16 C    0.978
    51   1 H    0.999 --    16 C    0.977
    52   1 H    0.999 --    17 C    0.978
    53   1 H    0.999 --    17 C    0.978
    54   1 H    0.999 --    18 C    0.988
    55   1 H    0.999 --    18 C    0.988
    56   1 H    0.999 --    18 C    0.987
 ---------------------------------------------------------------------------

Topologies differ in total number of bonds
Writing topology from bond orders to xtbtopo.mol

molecular dipole:
                 x           y           z       tot (Debye)
 q only:        0.025       0.027       0.007
   full:        0.022       0.016       0.006       0.070
molecular quadrupole (traceless):
                xx          xy          yy          xz          yz          zz
 q only:        0.150       0.277      -0.743       0.145       0.057       0.593
  q+dip:       -2.292      -0.784       1.427      -0.147       0.888       0.865
   full:       -1.054      -0.303       0.559      -0.024       0.447       0.496

           -------------------------------------------------
          |                Geometry Summary                 |
           -------------------------------------------------

      molecular mass/u    :      254.4949947
   center of mass at/Å    :        0.0001089       0.0002434       0.0003435
  moments of inertia/u·Å² :        0.1448460E+04   0.2355010E+04   0.3593628E+04
rotational constants/cm⁻¹ :        0.1163831E-01   0.7158200E-02   0.4690979E-02

 * 55 selected distances

     #   Z          #   Z                                           value/Å
     1   6 C        2   6 C                                       1.5236879
     2   6 C        3   6 C                                       1.5294614
     3   6 C        4   6 C                                       1.5294058
     4   6 C        5   6 C                                       1.5268061
     5   6 C        6   6 C                                       1.5269520
     6   6 C        7   6 C                                       1.5265075
     7   6 C        8   6 C                                       1.5268618
     8   6 C        9   6 C                                       1.5307884 (max)
     9   6 C       10   6 C                                       1.5297133
    10   6 C       11   6 C                                       1.5271334
    11   6 C       12   6 C                                       1.5296489
    12   6 C       13   6 C                                       1.5306958
    13   6 C       14   6 C                                       1.5272700
    14   6 C       15   6 C                                       1.5267373
    15   6 C       16   6 C                                       1.5267368
    16   6 C       17   6 C                                       1.5266752
    17   6 C       18   6 C                                       1.5236881
     1   6 C       19   1 H                                       1.0865693 (min)
     1   6 C       20   1 H                                       1.0881255
     1   6 C       21   1 H                                       1.0876310
     2   6 C       22   1 H                                       1.0930610
     2   6 C       23   1 H                                       1.0913013
     3   6 C       24   1 H                                       1.0932035
     3   6 C       25   1 H                                       1.0932226
     4   6 C       26   1 H                                       1.0913959
     4   6 C       27   1 H                                       1.0934191
     5   6 C       28   1 H                                       1.0929267
     5   6 C       29   1 H                                       1.0917020
     6   6 C       30   1 H                                       1.0933281
     6   6 C       31   1 H                                       1.0928605
     7   6 C       32   1 H                                       1.0911105
     7   6 C       33   1 H                                       1.0928766
     8   6 C       34   1 H                                       1.0916676
     8   6 C       35   1 H                                       1.0933127
     9   6 C       36   1 H                                       1.0930454
     9   6 C       37   1 H                                       1.0931395
    10   6 C       38   1 H                                       1.0892594
    10   6 C       39   1 H                                       1.0932603
    11   6 C       40   1 H                                       1.0931278
    11   6 C       41   1 H                                       1.0889929
    12   6 C       42   1 H                                       1.0930654
    12   6 C       43   1 H                                       1.0931186
    13   6 C       44   1 H                                       1.0915446
    13   6 C       45   1 H                                       1.0932926
    14   6 C       46   1 H                                       1.0912126
    14   6 C       47   1 H                                       1.0929413
    15   6 C       48   1 H                                       1.0929344
    15   6 C       49   1 H                                       1.0931613
    16   6 C       50   1 H                                       1.0929930
    16   6 C       51   1 H                                       1.0928805
    17   6 C       52   1 H                                       1.0926565
    17   6 C       53   1 H                                       1.0923527
    18   6 C       54   1 H                                       1.0875904
    18   6 C       55   1 H                                       1.0879878
    18   6 C       56   1 H                                       1.0875882

 * 2 distinct bonds (by element types)

   Z      Z             #   av. dist./Å        max./Å        min./Å
   1 H    6 C          38     1.0916805     1.0934191     1.0865693
   6 C    6 C          17     1.5275747     1.5307884     1.5236879

           -------------------------------------------------
          |               Frequency Printout                |
           -------------------------------------------------
 projected vibrational frequencies (cm⁻¹)
eigval :       -0.00    -0.00     0.00     0.00     0.00     0.00
eigval :        5.91    14.72    23.04    33.07    46.49    55.51
eigval :       65.47    70.80    80.11    91.66   104.89   117.81
eigval :      129.07   132.33   156.61   194.10   204.70   217.73
eigval :      224.74   233.83   237.93   268.45   270.08   286.99
eigval :      319.52   350.70   383.16   411.90   422.76   451.28
eigval :      487.25   508.40   525.50   743.71   761.87   766.85
eigval :      772.87   783.77   799.21   818.49   834.80   856.93
eigval :      863.14   892.19   900.30   914.19   934.11   946.21
eigval :      951.82   979.33   994.42  1001.31  1015.73  1034.93
eigval :     1043.06  1053.13  1060.50  1067.40  1078.85  1084.56
eigval :     1104.86  1105.95  1106.83  1120.29  1128.16  1135.96
eigval :     1146.89  1149.86  1152.82  1156.43  1160.64  1168.08
eigval :     1204.99  1216.31  1228.52  1237.91  1249.68  1251.35
eigval :     1254.74  1267.40  1273.30  1276.83  1280.94  1284.38
eigval :     1292.15  1292.98  1296.42  1297.09  1300.50  1307.31
eigval :     1320.46  1346.72  1349.24  1356.69  1357.85  1363.40
eigval :     1363.82  1373.32  1375.64  1376.37  1378.77  1379.98
eigval :     1414.40  1418.63  1486.92  1488.12  1489.58  1491.76
eigval :     1493.13  1496.18  1496.26  1498.04  1499.03  1500.61
eigval :     1501.63  1502.10  1503.28  1505.00  1505.50  1506.35
eigval :     1507.39  1507.73  1509.46  1519.39  2950.48  2951.33
eigval :     2954.24  2955.16  2955.39  2955.96  2956.27  2957.76
eigval :     2958.50  2959.23  2962.11  2964.17  2965.56  2967.25
eigval :     2970.60  2971.26  2972.13  2973.48  2974.08  2975.21
eigval :     2976.19  2977.95  2982.44  2983.31  2985.87  2987.12
eigval :     2990.11  2991.36  2992.00  2995.19  3013.15  3018.01
eigval :     3029.23  3030.31  3033.66  3035.43  3039.89  3047.44
 reduced masses (amu)
   1: 10.11   2: 10.24   3: 10.21   4: 10.28   5: 10.33   6:  9.91   7:  8.29   8:  9.42
   9:  9.75  10:  9.58  11:  7.70  12:  8.36  13:  7.48  14:  8.79  15:  8.29  16:  8.48
  17:  7.05  18:  6.32  19:  7.11  20:  7.74  21:  5.91  22:  8.01  23:  8.46  24:  6.86
  25:  8.05  26:  2.53  27:  7.93  28:  7.85  29:  5.48  30:  6.81  31:  8.04  32:  8.58
  33:  8.56  34:  7.95  35:  8.46  36:  8.55  37:  8.52  38:  8.45  39:  8.23  40:  2.59
  41:  2.36  42:  1.92  43:  1.95  44:  2.37  45:  2.75  46:  3.28  47:  4.44  48:  4.49
  49:  5.33  50:  5.19  51:  6.01  52:  4.50  53:  7.19  54:  6.44  55:  6.42  56:  4.54
  57:  5.10  58:  4.64  59:  5.94  60:  6.37  61:  6.50  62:  5.01  63:  7.80  64:  7.26
  65:  6.35  66:  7.58  67:  8.60  68:  7.77  69:  7.75  70:  6.15  71:  5.94  72:  8.04
  73:  7.96  74:  7.80  75:  7.84  76:  6.79  77:  6.89  78:  5.57  79:  5.75  80:  4.76
  81:  4.49  82:  4.15  83:  3.66  84:  3.73  85:  3.44  86:  3.09  87:  2.41  88:  2.53
  89:  1.75  90:  2.07  91:  2.47  92:  2.35  93:  2.32  94:  2.10  95:  3.51  96:  3.24
  97:  3.28  98:  4.30  99:  4.15 100:  4.36 101:  4.59 102:  4.51 103:  4.77 104:  5.30
 105:  5.14 106:  5.02 107:  5.68 108:  5.49 109:  3.24 110:  3.16 111:  1.91 112:  1.83
 113:  1.89 114:  1.96 115:  1.90 116:  1.87 117:  1.90 118:  1.93 119:  1.90 120:  1.97
 121:  1.82 122:  2.00 123:  1.85 124:  1.90 125:  1.61 126:  1.77 127:  1.86 128:  1.72
 129:  1.72 130:  1.63 131:  1.90 132:  1.89 133:  1.87 134:  1.89 135:  1.92 136:  1.90
 137:  1.90 138:  1.91 139:  1.92 140:  1.88 141:  1.81 142:  1.76 143:  1.81 144:  1.85
 145:  1.51 146:  1.64 147:  1.60 148:  1.80 149:  1.52 150:  1.59 151:  1.58 152:  1.56
 153:  1.63 154:  1.54 155:  1.68 156:  1.70 157:  1.65 158:  1.64 159:  1.56 160:  1.59
 161:  1.70 162:  1.64 163:  1.89 164:  1.89 165:  1.90 166:  1.79 167:  1.32 168:  1.51
 IR intensities (km·mol⁻¹)
   1:  0.00   2:  0.00   3:  0.00   4:  0.00   5:  0.00   6:  0.00   7:  0.00   8:  0.00
   9:  0.00  10:  0.00  11:  0.00  12:  0.00  13:  0.00  14:  0.01  15:  0.02  16:  0.05
  17:  0.01  18:  0.00  19:  0.01  20:  0.01  21:  0.01  22:  0.02  23:  0.15  24:  0.06
  25:  0.06  26:  0.02  27:  0.01  28:  0.06  29:  0.01  30:  0.45  31:  0.28  32:  0.06
  33:  0.25  34:  0.57  35:  0.31  36:  0.22  37:  0.46  38:  0.10  39:  2.06  40: 10.26
  41: 11.77  42: 31.21  43:  0.81  44:  0.52  45:  5.48  46:  7.83  47:  0.42  48:  0.57
  49:  0.10  50:  1.28  51:  0.85  52:  0.48  53:  1.10  54:  1.59  55:  1.42  56:  0.69
  57:  0.15  58:  2.16  59:  1.86  60:  0.13  61:  0.33  62:  0.17  63:  0.36  64:  0.94
  65:  0.16  66:  1.01  67:  0.04  68:  0.39  69:  0.25  70:  1.52  71:  2.60  72:  0.43
  73:  0.69  74:  0.66  75:  0.70  76:  0.01  77:  1.35  78:  0.08  79:  0.13  80:  0.46
  81:  0.25  82:  0.48  83:  0.27  84:  0.36  85:  0.73  86:  0.33  87:  0.36  88:  0.23
  89:  0.21  90:  0.27  91:  0.53  92:  1.05  93:  0.04  94:  0.25  95:  0.48  96:  0.07
  97:  0.30  98:  2.46  99:  0.52 100:  0.57 101:  5.64 102:  2.25 103:  2.08 104:  0.13
 105:  0.15 106:  0.10 107:  0.59 108:  1.29 109:  2.98 110:  0.47 111:  0.21 112:  0.11
 113:  0.15 114:  0.01 115:  1.23 116:  0.60 117:  0.13 118:  1.24 119:  0.40 120:  0.24
 121:  0.23 122:  0.19 123:  0.18 124:  0.08 125:  1.52 126:  2.56 127:  1.40 128:  0.09
 129:  1.52 130:  1.51 131:  0.35 132:  7.28 133:  5.25 134:  4.59 135: 15.57 136: 10.25
 137: 15.06 138: 14.75 139:  8.40 140: 40.99 141: 26.58 142:  0.32 143: 27.97 144: 19.49
 145: 14.35 146: 25.06 147: 16.49 148: 64.07 149: 23.56 150: 71.97 151:272.59 152: 78.74
 153: 24.44 154: 21.20 155: 16.86 156: 96.22 157: 61.74 158: 77.69 159: 91.72 160:171.10
 161: 49.20 162:107.64 163: 69.39 164: 64.70 165: 35.68 166: 66.43 167: 29.57 168: 29.92
 Raman intensities (amu)
   1:  0.00   2:  0.00   3:  0.00   4:  0.00   5:  0.00   6:  0.00   7:  0.00   8:  0.00
   9:  0.00  10:  0.00  11:  0.00  12:  0.00  13:  0.00  14:  0.00  15:  0.00  16:  0.00
  17:  0.00  18:  0.00  19:  0.00  20:  0.00  21:  0.00  22:  0.00  23:  0.00  24:  0.00
  25:  0.00  26:  0.00  27:  0.00  28:  0.00  29:  0.00  30:  0.00  31:  0.00  32:  0.00
  33:  0.00  34:  0.00  35:  0.00  36:  0.00  37:  0.00  38:  0.00  39:  0.00  40:  0.00
  41:  0.00  42:  0.00  43:  0.00  44:  0.00  45:  0.00  46:  0.00  47:  0.00  48:  0.00
  49:  0.00  50:  0.00  51:  0.00  52:  0.00  53:  0.00  54:  0.00  55:  0.00  56:  0.00
  57:  0.00  58:  0.00  59:  0.00  60:  0.00  61:  0.00  62:  0.00  63:  0.00  64:  0.00
  65:  0.00  66:  0.00  67:  0.00  68:  0.00  69:  0.00  70:  0.00  71:  0.00  72:  0.00
  73:  0.00  74:  0.00  75:  0.00  76:  0.00  77:  0.00  78:  0.00  79:  0.00  80:  0.00
  81:  0.00  82:  0.00  83:  0.00  84:  0.00  85:  0.00  86:  0.00  87:  0.00  88:  0.00
  89:  0.00  90:  0.00  91:  0.00  92:  0.00  93:  0.00  94:  0.00  95:  0.00  96:  0.00
  97:  0.00  98:  0.00  99:  0.00 100:  0.00 101:  0.00 102:  0.00 103:  0.00 104:  0.00
 105:  0.00 106:  0.00 107:  0.00 108:  0.00 109:  0.00 110:  0.00 111:  0.00 112:  0.00
 113:  0.00 114:  0.00 115:  0.00 116:  0.00 117:  0.00 118:  0.00 119:  0.00 120:  0.00
 121:  0.00 122:  0.00 123:  0.00 124:  0.00 125:  0.00 126:  0.00 127:  0.00 128:  0.00
 129:  0.00 130:  0.00 131:  0.00 132:  0.00 133:  0.00 134:  0.00 135:  0.00 136:  0.00
 137:  0.00 138:  0.00 139:  0.00 140:  0.00 141:  0.00 142:  0.00 143:  0.00 144:  0.00
 145:  0.00 146:  0.00 147:  0.00 148:  0.00 149:  0.00 150:  0.00 151:  0.00 152:  0.00
 153:  0.00 154:  0.00 155:  0.00 156:  0.00 157:  0.00 158:  0.00 159:  0.00 160:  0.00
 161:  0.00 162:  0.00 163:  0.00 164:  0.00 165:  0.00 166:  0.00 167:  0.00 168:  0.00
 output can be read by thermo (or use thermo option).
 writing <g98.out> molden fake output.
 recommended (thermochemical) frequency scaling factor: 1.0
           -------------------------------------------------
          |             Thermodynamic Functions             |
           -------------------------------------------------

Molecule has no symmetry elements
It seems to be the C1 point group
c1  symmetry found (for desy threshold:  0.10E+00) used in thermo

          ...................................................
          :                      SETUP                      :
          :.................................................:
          :  # frequencies                         162      :
          :  # imaginary freq.                       0      :
          :  linear?                             false      :
          :  only rotor calc.                    false      :
          :  symmetry                               c1      :
          :  rotational number                       1      :
          :  scaling factor                  1.0000000      :
          :  rotor cutoff                   50.0000000 cm⁻¹ :
          :  imag. cutoff                  -20.0000000 cm⁻¹ :
          :.................................................:

    mode    ω/cm⁻¹     T·S(HO)/kcal·mol⁻¹    T·S(FR)/kcal·mol⁻¹   T·S(vib)
   ------------------------------------------------------------------------
       1      5.91    -2.70008 (  0.02%)    -1.68880 ( 99.98%)    -1.68900
       2     14.72    -2.15943 (  0.75%)    -1.41863 ( 99.25%)    -1.42416
       3     23.04    -1.89429 (  4.31%)    -1.28602 ( 95.69%)    -1.31225
       4     33.07    -1.68046 ( 16.06%)    -1.17897 ( 83.94%)    -1.25951
       5     46.49    -1.47925 ( 42.77%)    -1.07808 ( 57.23%)    -1.24966
       6     55.51    -1.37475 ( 60.30%)    -1.02557 ( 39.70%)    -1.23611
       7     65.47    -1.27758 ( 74.62%)    -0.97665 ( 25.38%)    -1.20121
       8     70.80    -1.23167 ( 80.08%)    -0.95349 ( 19.92%)    -1.17626
       9     80.11    -1.15924 ( 86.83%)    -0.91688 ( 13.17%)    -1.12731
      10     91.66    -1.08056 ( 91.87%)    -0.87697 (  8.13%)    -1.06400
      11    104.89    -1.00219 ( 95.09%)    -0.83705 (  4.91%)    -0.99408
      12    117.81    -0.93501 ( 96.86%)    -0.80265 (  3.14%)    -0.93085
      13    129.07    -0.88249 ( 97.80%)    -0.77561 (  2.20%)    -0.88014
      14    132.33    -0.86818 ( 98.00%)    -0.76821 (  2.00%)    -0.86619
      15    156.61    -0.77231 ( 98.97%)    -0.71831 (  1.03%)    -0.77175
      16    194.10    -0.65245 ( 99.56%)    -0.65473 (  0.44%)    -0.65246
      17    204.70    -0.62326 ( 99.65%)    -0.63898 (  0.35%)    -0.62331
      18    217.73    -0.58970 ( 99.72%)    -0.62070 (  0.28%)    -0.58979
      19    224.74    -0.57261 ( 99.76%)    -0.61131 (  0.24%)    -0.57270
      20    233.83    -0.55139 ( 99.79%)    -0.59957 (  0.21%)    -0.55149
      21    237.93    -0.54213 ( 99.81%)    -0.59442 (  0.19%)    -0.54223
      22    268.45    -0.47887 ( 99.88%)    -0.55866 (  0.12%)    -0.47897
      23    270.08    -0.47576 ( 99.88%)    -0.55687 (  0.12%)    -0.47585
      24    286.99    -0.44473 ( 99.91%)    -0.53888 (  0.09%)    -0.44482
   ------------------------------------------------------------------------

   temp. (K)  partition function   enthalpy   heat capacity  entropy
                                   cal/mol     cal/K/mol   cal/K/mol   J/K/mol
 298.15  VIB  0.777E+12            13236.366     74.762     87.689
         ROT  0.846E+07              888.752      2.981     34.679
         INT  0.657E+19            14125.118     77.743    122.368
         TR   0.393E+28             1481.254      4.968     42.483
         TOT                       15606.3722    82.7112   164.8508   689.7359

       T/K    H(0)-H(T)+PV         H(T)/Eh          T*S/Eh         G(T)/Eh
   ------------------------------------------------------------------------
    298.15    0.248703E-01    0.551290E+00    0.783260E-01    0.472964E+00
   ------------------------------------------------------------------------

         :::::::::::::::::::::::::::::::::::::::::::::::::::::
         ::                  THERMODYNAMIC                  ::
         :::::::::::::::::::::::::::::::::::::::::::::::::::::
         :: total free energy         -57.490243433969 Eh   ::
         ::.................................................::
         :: total energy              -57.963207131176 Eh   ::
         :: zero point energy           0.526419316957 Eh   ::
         :: G(RRHO) w/o ZPVE           -0.053455619749 Eh   ::
         :: G(RRHO) contrib.            0.472963697208 Eh   ::
         :::::::::::::::::::::::::::::::::::::::::::::::::::::
 
 normal mode %tage of torsion character
   1:  0.00   2:  0.00   3:  0.00   4:  0.00   5:  0.00   6:  0.00   7:  0.31   8:  0.36
   9:  0.28  10:  0.35  11:  0.49  12:  0.44  13:  0.55  14:  0.42  15:  0.46  16:  0.43
  17:  0.62  18:  0.67  19:  0.67  20:  0.62  21:  0.66  22:  0.59  23:  0.33  24:  0.60
  25:  0.58  26:  0.86  27:  0.56  28:  0.43  29:  0.70  30:  0.60  31:  0.50  32:  0.34
  33:  0.24  34:  0.24  35:  0.14  36:  0.17  37:  0.15  38:  0.16  39:  0.22  40:  0.57
  41:  0.57  42:  0.56  43:  0.52  44:  0.49  45:  0.47  46:  0.49  47:  0.39  48:  0.47
  49:  0.40  50:  0.34  51:  0.41  52:  0.53  53:  0.16  54:  0.30  55:  0.29  56:  0.51
  57:  0.40  58:  0.28  59:  0.33  60:  0.19  61:  0.27  62:  0.18  63:  0.11  64:  0.16
  65:  0.33  66:  0.16  67:  0.04  68:  0.08  69:  0.05  70:  0.23  71:  0.31  72:  0.14
  73:  0.29  74:  0.30  75:  0.14  76:  0.37  77:  0.24  78:  0.16  79:  0.55  80:  0.45
  81:  0.38  82:  0.35  83:  0.23  84:  0.32  85:  0.21  86:  0.30  87:  0.18  88:  0.10
  89:  0.07  90:  0.16  91:  0.12  92:  0.11  93:  0.12  94:  0.09  95:  0.13  96:  0.10
  97:  0.10  98:  0.09  99:  0.07 100:  0.07 101:  0.11 102:  0.08 103:  0.16 104:  0.06
 105:  0.07 106:  0.07 107:  0.06 108:  0.06 109:  0.00 110:  0.00 111:  0.64 112:  0.68
 113:  0.66 114:  0.64 115:  0.70 116:  0.64 117:  0.60 118:  0.67 119:  0.64 120:  0.64
 121:  0.65 122:  0.65 123:  0.66 124:  0.60 125:  0.85 126:  0.66 127:  0.66 128:  0.76
 129:  0.70 130:  0.83 131:  0.34 132:  0.33 133:  0.23 134:  0.29 135:  0.27 136:  0.23
 137:  0.23 138:  0.16 139:  0.20 140:  0.25 141:  0.27 142:  0.08 143:  0.07 144:  0.05
 145:  0.01 146:  0.04 147:  0.01 148:  0.01 149:  0.02 150:  0.02 151:  0.01 152:  0.01
 153:  0.02 154:  0.01 155:  0.02 156:  0.02 157:  0.05 158:  0.05 159:  0.02 160:  0.05
 161:  0.03 162:  0.10 163:  0.05 164:  0.04 165:  0.04 166:  0.04 167:  0.00 168:  0.03
 recommended # of modes for mode following           4

optimized geometry written to: xtbopt.xyz


           -------------------------------------------------
          | TOTAL ENERGY              -57.963207131176 Eh   |
          | TOTAL ENTHALPY            -57.411917477053 Eh   |
          | TOTAL FREE ENERGY         -57.490243433969 Eh   |
          | GRADIENT NORM               0.000415702897 Eh/α |
          | HOMO-LUMO GAP              12.399054050146 eV   |
           -------------------------------------------------

------------------------------------------------------------------------
 * finished run on 2024/04/23 at 12:11:03.081     
------------------------------------------------------------------------
 total:
 * wall-time:     0 d,  0 h,  0 min,  4.043 sec
 *  cpu-time:     0 d,  0 h,  0 min, 15.738 sec
 * ratio c/w:     3.892 speedup
 SCF:
 * wall-time:     0 d,  0 h,  0 min,  0.049 sec
 *  cpu-time:     0 d,  0 h,  0 min,  0.171 sec
 * ratio c/w:     3.515 speedup
 ANC optimizer:
 * wall-time:     0 d,  0 h,  0 min,  0.314 sec
 *  cpu-time:     0 d,  0 h,  0 min,  1.205 sec
 * ratio c/w:     3.837 speedup
 analytical hessian:
 * wall-time:     0 d,  0 h,  0 min,  3.590 sec
 *  cpu-time:     0 d,  0 h,  0 min, 14.093 sec
 * ratio c/w:     3.926 speedup

