56
 energy: -57.959073615720 gnorm: 0.037797937573 xtb: 6.6.1 (8d0f1dd)
C            4.35571500000000       -0.01079800000000       -0.04955900000000
C            4.13469200000000       -1.15134000000000       -1.02970600000000
C            3.89363100000000       -2.49987500000000       -0.34371600000000
C            2.64480800000000       -2.54204800000000        0.54233000000000
C            1.34561700000000       -2.28232500000000       -0.22039500000000
C            0.09799900000000       -2.47318400000000        0.64186200000000
C           -1.19585400000000       -2.21146000000000       -0.12763900000000
C           -2.45147100000000       -2.41843500000000        0.72021500000000
C           -3.75490100000000       -2.18796800000000       -0.05228000000000
C           -3.90097400000000       -0.77124100000000       -0.61524300000000
C           -3.99346200000000        0.30804700000000        0.46443800000000
C           -3.99882900000000        1.73274300000000       -0.09745200000000
C           -2.68382400000000        2.14054600000000       -0.77127000000000
C           -1.48898800000000        2.15739300000000        0.18350700000000
C           -0.19409400000000        2.62034600000000       -0.48401700000000
C            0.97351400000000        2.72488700000000        0.49708600000000
C            2.26643200000000        3.21157000000000       -0.15866600000000
C            3.39424800000000        3.41058500000000        0.84248000000000
H            3.47147700000000        0.16289600000000        0.56638700000000
H            5.18418400000000       -0.22656300000000        0.62838200000000
H            4.58692000000000        0.92753000000000       -0.55972300000000
H            5.00154400000000       -1.23104700000000       -1.70179800000000
H            3.29011000000000       -0.91780200000000       -1.69143300000000
H            3.81833500000000       -3.29101300000000       -1.10181700000000
H            4.77815700000000       -2.75802900000000        0.25388400000000
H            2.73914000000000       -1.81792500000000        1.36061300000000
H            2.57604400000000       -3.51904800000000        1.03952700000000
H            1.29286800000000       -2.94636600000000       -1.09221900000000
H            1.34984400000000       -1.26672700000000       -0.63459400000000
H            0.14845100000000       -1.81303600000000        1.51695500000000
H            0.08418900000000       -3.49066200000000        1.05223800000000
H           -1.17392900000000       -1.19022700000000       -0.52586600000000
H           -1.23796700000000       -2.86097800000000       -1.01097700000000
H           -2.41130600000000       -1.75972500000000        1.59571300000000
H           -2.43839200000000       -3.43500400000000        1.13582900000000
H           -4.61515800000000       -2.40699600000000        0.59390400000000
H           -3.81531800000000       -2.91779500000000       -0.87072100000000
H           -3.05922300000000       -0.55808100000000       -1.28261600000000
H           -4.78811000000000       -0.70868300000000       -1.25989400000000
H           -4.89513900000000        0.13358000000000        1.06694600000000
H           -3.16313900000000        0.20071300000000        1.17030900000000
H           -4.82989000000000        1.83292100000000       -0.80801300000000
H           -4.21955600000000        2.44686600000000        0.70719400000000
H           -2.46793000000000        1.47326400000000       -1.61385800000000
H           -2.79102000000000        3.13552300000000       -1.22406900000000
H           -1.33471500000000        1.16197300000000        0.61650600000000
H           -1.71447100000000        2.80778900000000        1.03803100000000
H           -0.35642200000000        3.59305600000000       -0.96515600000000
H            0.06712200000000        1.93746400000000       -1.30228000000000
H            1.14337600000000        1.75266200000000        0.97676500000000
H            0.70210000000000        3.40217300000000        1.31659500000000
H            2.07013200000000        4.15053400000000       -0.69401600000000
H            2.56755000000000        2.49982900000000       -0.93925700000000
H            4.32191900000000        3.72795200000000        0.35990300000000
H            3.13461700000000        4.16913800000000        1.58398400000000
H            3.60631700000000        2.49037900000000        1.39010400000000
56
 energy: -57.962348467466 gnorm: 0.016663802382 xtb: 6.6.1 (8d0f1dd)
C            4.35692954783730       -0.01449666432515       -0.04750254849202
C            4.13052506411540       -1.15227052477764       -1.02986636045452
C            3.88552297800683       -2.49677035087604       -0.34237943598014
C            2.63787916392681       -2.53887731203189        0.54263582193324
C            1.34068739712317       -2.28266375594623       -0.22307040040975
C            0.09828067829429       -2.47726352289116        0.64447701245346
C           -1.19070329953794       -2.21163573169645       -0.13058366443491
C           -2.44409171207692       -2.41466947949421        0.71984233759004
C           -3.74697854743719       -2.18238664537518       -0.05035074045084
C           -3.89730486056163       -0.76930004321768       -0.61578702092175
C           -3.98923034493244        0.30681299045169        0.46480904164358
C           -3.99007295957782        1.72842285235909       -0.09906812808244
C           -2.67578801832958        2.13800285908302       -0.76977154125109
C           -1.48450851189123        2.15909630214217        0.18792554047881
C           -0.19419086926877        2.62375361829762       -0.48532157715805
C            0.96971895113988        2.72585796585697        0.49938713698008
C            2.25908453942856        3.21197920811646       -0.16104910361482
C            3.38392458771507        3.41027573639793        0.84414436529478
H            3.46902633662083        0.16001859551353        0.55740587112522
H            5.18608134036057       -0.23866545485257        0.62375391639117
H            4.58947825721332        0.91159015777997       -0.57176906488274
H            5.00738442471239       -1.24404558954301       -1.68139557390186
H            3.28477183325973       -0.91390438675792       -1.68210347809917
H            3.80337372926606       -3.27603956560946       -1.10815781826881
H            4.76216941045185       -2.74567217710038        0.26625603662035
H            2.73428867910442       -1.81067573049510        1.35332897577426
H            2.57930938231392       -3.52440146104406        1.01823281808485
H            1.29019262702575       -2.95799516921211       -1.08404096464708
H            1.34241797083034       -1.26213353815534       -0.61783744097717
H            0.14849352140337       -1.80483876913193        1.50809124502655
H            0.08445899451944       -3.49865179652658        1.03971669844236
H           -1.16509995362096       -1.18621383561015       -0.50988115111576
H           -1.23503701295674       -2.87297527319033       -1.00266029652814
H           -2.40518695065674       -1.75195998268498        1.58931948984336
H           -2.44378785069796       -3.43728002752747        1.11361318755570
H           -4.59626572804736       -2.39583191876550        0.60823507701639
H           -3.80082616772507       -2.90116390900881       -0.87558171804159
H           -3.05355180436466       -0.56029929181104       -1.27614996635578
H           -4.79650027747677       -0.72246761325133       -1.24057903966454
H           -4.90331987202749        0.14636091632382        1.04765020045003
H           -3.15652223154091        0.20365993654517        1.16291912220253
H           -4.80837704640050        1.82467063974094       -0.82136699474874
H           -4.20332740537512        2.43252738912561        0.71288039897483
H           -2.46067742524456        1.46621759334006       -1.60579125988536
H           -2.79788835891401        3.13727821336557       -1.20268240883305
H           -1.32444862793395        1.15987474114804        0.60269793266103
H           -1.71318880027740        2.82067994470559        1.03050700541524
H           -0.35909371703673        3.60088671815842       -0.95200917378154
H            0.06834285403646        1.92950860232322       -1.29114180146941
H            1.14433643656653        1.74845172809703        0.96222703042603
H            0.69815980168194        3.41372754203003        1.30729434947560
H            2.06443441490745        4.15706080846127       -0.67999357451089
H            2.56760734719320        2.49088513161395       -0.92575881355493
H            4.30203877607314        3.72576861205842        0.34912210158657
H            3.11954102091009        4.17246302732191        1.57696420328830
H            3.59447828787231        2.48769569055218        1.38365114378254
56
 energy: -57.962916047655 gnorm: 0.002606984763 xtb: 6.6.1 (8d0f1dd)
C            4.35915843421430       -0.01549289099434       -0.04754049581110
C            4.12941880522930       -1.15434154559593       -1.03076750363899
C            3.87919860353089       -2.49672536505797       -0.34242997047903
C            2.63234431825845       -2.53942652800745        0.54300804137248
C            1.33722098742125       -2.28276701736285       -0.22456910009007
C            0.09840097913310       -2.48127914635080        0.64657312854847
C           -1.18704483510329       -2.21162411186251       -0.13241933030419
C           -2.43808839596331       -2.41462595686415        0.72012625892841
C           -3.74116041749352       -2.18031822288422       -0.04864374106562
C           -3.89606810847088       -0.76867914639852       -0.61569326956004
C           -3.98736227032213        0.30653754875073        0.46454470865932
C           -3.98368073837761        1.72728888635578       -0.10052182399022
C           -2.66924860694860        2.13858706869058       -0.76909836147985
C           -1.48130561863241        2.15980132345187        0.19157226414032
C           -0.19490561919300        2.62700769687028       -0.48632601473989
C            0.96649813325782        2.72751353234039        0.50076823450054
C            2.25301273658143        3.21360578003251       -0.16316560554927
C            3.37693563568516        3.41304134569790        0.84553178937126
H            3.47003894703432        0.16098167248332        0.55156679010215
H            5.18594552018393       -0.24748871170131        0.62108977166116
H            4.59695483659256        0.90287298050779       -0.57932717268115
H            5.01078853851244       -1.25506697744428       -1.67010416700109
H            3.28549397184687       -0.91162679389480       -1.67885748925067
H            3.79233838847080       -3.27016930377564       -1.11030544780653
H            4.74978762138141       -2.74090002448884        0.27268301451936
H            2.72798329905700       -1.81027785422752        1.34965449212933
H            2.57796375547883       -3.52843021844305        1.00666509012042
H            1.28756356475709       -2.96194788598960       -1.07974115570843
H            1.33518235628044       -1.26101282931400       -0.60961946443499
H            0.14851776057980       -1.80529979114675        1.50476777812872
H            0.08452277440473       -3.50360090003026        1.03324046220435
H           -1.15670008333631       -1.18534859647045       -0.50232539213691
H           -1.23207381488211       -2.87720200435198       -0.99843659630514
H           -2.39712519306411       -1.75164733629611        1.58650023841741
H           -2.44419006377966       -3.43970928268817        1.10106285385974
H           -4.58232303440888       -2.39049175194217        0.61774435232003
H           -3.79166417195127       -2.89314043574319       -0.87628940375538
H           -3.05458883579752       -0.56085140802516       -1.27510259678368
H           -4.80216133050861       -0.73204835665301       -1.22719364914387
H           -4.90828862018321        0.15529055538761        1.03470697660881
H           -3.15626335096008        0.20408129335040        1.16062609722486
H           -4.79255996085637        1.82136677808263       -0.83038952000014
H           -4.19341918881421        2.42599058418274        0.71400757008690
H           -2.45159312773887        1.46632196980430       -1.60117874994073
H           -2.79865408687654        3.13937100970916       -1.19061421662101
H           -1.31604287147590        1.16073839567912        0.59851517236792
H           -1.71113816296625        2.82621028602332        1.02715375475828
H           -0.36088786567077        3.60521966892527       -0.94524329485126
H            0.06799413121956        1.92904170473002       -1.28592068889191
H            1.14282711966072        1.74883000531893        0.95512133413056
H            0.69512981331299        3.41889233681342        1.30274392539859
H            2.05835820052527        4.15962611788152       -0.67457505501144
H            2.56448437790762        2.48822880693847       -0.91866710993379
H            4.28983620894502        3.72761610611343        0.34407003597391
H            3.10730312712281        4.17581442824273        1.57318742409610
H            3.58430542718951        2.48964051164078        1.38127182733703
56
 energy: -57.962960681317 gnorm: 0.001314705973 xtb: 6.6.1 (8d0f1dd)
C            4.36156355182821       -0.01642475069798       -0.04837125924869
C            4.13011446358974       -1.15621560571028       -1.03143546438096
C            3.87788781346871       -2.49802810756826       -0.34226079663929
C            2.63068758125844       -2.54036205988386        0.54295868547761
C            1.33624464154101       -2.28327192548640       -0.22496871662621
C            0.09837686698200       -2.48347190042010        0.64687807757491
C           -1.18609671532768       -2.21206243362416       -0.13286972849134
C           -2.43622471436544       -2.41540808464836        0.72030986345184
C           -3.74013163213764       -2.18061666356111       -0.04721504434782
C           -3.89691658728275       -0.76916679159779       -0.61532578574854
C           -3.98789322866381        0.30681740695789        0.46419200053559
C           -3.98236250981784        1.72755430720265       -0.10196808809947
C           -2.66697579187758        2.13923139770031       -0.76872733453452
C           -1.48033254524579        2.16061542380851        0.19300197475922
C           -0.19515042321326        2.62887714450593       -0.48610609425364
C            0.96576760525335        2.72902591414871        0.50122091096910
C            2.25123626201516        3.21539194564160       -0.16389593535006
C            3.37477064750675        3.41632993660966        0.84594523447945
H            3.47190723870321        0.16307773910624        0.54874334331342
H            5.18624313991478       -0.25088492419083        0.62162016164367
H            4.60325311044612        0.90002518199204       -0.58135135559889
H            5.01218172054513       -1.25958476475223       -1.66846163690876
H            3.28777850709422       -0.91180155237016       -1.68047102442130
H            3.78944322049852       -3.27100610473307       -1.10988720605280
H            4.74743805377873       -2.74269663282005        0.27331679169300
H            2.72551733331741       -1.81225673969757        1.35019961824500
H            2.57561047221617       -3.52973306056872        1.00460237394561
H            1.28631960995506       -2.96143323249564       -1.08038608579742
H            1.33276628731883       -1.26137432187610       -0.60843983895502
H            0.14852461298965       -1.80906259343362        1.50576525003805
H            0.08439349587786       -3.50610307931147        1.03146605454728
H           -1.15410211173253       -1.18573852115997       -0.50135452984902
H           -1.23092400158725       -2.87669372971855       -0.99905868355308
H           -2.39351023714005       -1.75399349045092        1.58739181302645
H           -2.44223940182125       -3.44088033833256        1.09870885607523
H           -4.57969434331840       -2.39048006566200        0.62047404030654
H           -3.79037206504692       -2.89319700991590       -0.87452946997305
H           -3.05757282724278       -0.56082801107277       -1.27702234996469
H           -4.80455196640707       -0.73524733584367       -1.22373619235167
H           -4.91018258204022        0.15814405576102        1.03179994609033
H           -3.15848123493954        0.20354193044567        1.16188501769622
H           -4.78927599472781        1.82144443762927       -0.83330107082608
H           -4.19209101777343        2.42617799132289        0.71206682248356
H           -2.44725742397592        1.46837539145329       -1.60098191866297
H           -2.79630141022576        3.14028159826060       -1.18829319852072
H           -1.31353718570117        1.16209528024989        0.59957857549656
H           -1.71016795450484        2.82678879743032        1.02819295740165
H           -0.36186514952280        3.60701448417743       -0.94388559619788
H            0.06756407594629        1.93170602997656       -1.28586295614956
H            1.14181121658863        1.75044912120699        0.95486970893288
H            0.69411739168687        3.41999392361834        1.30290909771259
H            2.05567550378711        4.16054374950787       -0.67555259093691
H            2.56301710112976        2.48942864232487       -0.91799281960258
H            4.28733259936270        3.73110387143672        0.34466832464882
H            3.10271862183066        4.17890863417797        1.57249518370462
H            3.58091830920847        2.49305749495083        1.38188908779374
56
 energy: -57.963020503667 gnorm: 0.003525172936 xtb: 6.6.1 (8d0f1dd)
C            4.37053644982603       -0.02110780054314       -0.05170538137450
C            4.13453488999144       -1.16356623303118       -1.03302716909706
C            3.87523735540133       -2.50355418886676       -0.34187056695392
C            2.62705326518176       -2.54409024598655        0.54240361212759
C            1.33435359471416       -2.28467091713679       -0.22597047810335
C            0.09818897004165       -2.49076193863471        0.64602922123510
C           -1.18443488530133       -2.21312580696237       -0.13375200140113
C           -2.43206569012221       -2.41825004957453        0.72099548320957
C           -3.73858032173049       -2.18220109317104       -0.04211776787006
C           -3.90123879759319       -0.77162489547159       -0.61354354134024
C           -3.99108487739433        0.30800534219300        0.46271749726447
C           -3.97957501199443        1.72834591765083       -0.10704836136756
C           -2.66129968144951        2.14102932928810       -0.76771661504695
C           -1.47826261583746        2.16301385199868        0.19701555810053
C           -0.19626106363011        2.63544430686270       -0.48410526099632
C            0.96438618844127        2.73508859483059        0.50235258943181
C            2.24729043963857        3.22255174638070       -0.16513522793278
C            3.36884914268875        3.42924650404647        0.84722296476722
H            3.47869555195839        0.17015105927900        0.53855547060169
H            5.18773037948910       -0.26251440390480        0.62466363801939
H            4.62608393903544        0.89015186248759       -0.58714729294380
H            5.01805750328460       -1.27392900956199       -1.66576041664224
H            3.29662407869558       -0.91486517408940       -1.68591947719206
H            3.78282810625472       -3.27644574115672       -1.10863057198073
H            4.74310015485908       -2.75118016455153        0.27379480501243
H            2.72008204165208       -1.81910956466682        1.35236718837711
H            2.56874808386609       -3.53437073410400        1.00048601850473
H            1.28374935641809       -2.95872794693164       -1.08403275276427
H            1.32742494972084       -1.26179661929917       -0.60567973135515
H            0.14854408333962       -1.82300894683472        1.50950345708929
H            0.08374072046257       -3.51534720836603        1.02419109323145
H           -1.14862861600273       -1.18609736106221       -0.49891297252598
H           -1.22908270260705       -2.87381419053576       -1.00237004964378
H           -2.38432530575167       -1.76175757652123        1.59129382542607
H           -2.43646235560381       -3.44510186666463        1.09400607444999
H           -4.57494465615164       -2.39146267862430        0.62859731947233
H           -3.78971140617322       -2.89582172361014       -0.86783520400039
H           -3.06820264311934       -0.56168611411856       -1.28295430920808
H           -4.81299531102182       -0.74467985703444       -1.21487211293210
H           -4.91685034177850        0.16618842020526        1.02507888207011
H           -3.16655446866610        0.20221941663590        1.16598625630512
H           -4.78208485167125        1.82152499771958       -0.84226039110590
H           -4.19139619462285        2.42846568810335        0.70451599226928
H           -2.43527471499082        1.47417054573963       -1.60121954628049
H           -2.78909203957893        3.14301690261486       -1.18405100350235
H           -1.30758343524811        1.16571285451032        0.60406532998472
H           -1.70852687594544        2.82795903285680        1.03247256362267
H           -0.36571475635466        3.61381572829718       -0.93935569108532
H            0.06615316801919        1.94163999917708       -1.28622765185192
H            1.13994921093166        1.75668490244758        0.95540958139610
H            0.69203960023296        3.42444339183658        1.30466765156626
H            2.04840117482090        4.16476596998291       -0.67990706502771
H            2.56047172151602        2.49512359581079       -0.91643926318808
H            4.28174867869955        3.74531334225043        0.34856480014238
H            3.08976237014750        4.19164528732749        1.57087400017837
H            3.57283845101203        2.50692946048339        1.38517400085845
56
 energy: -57.963046553564 gnorm: 0.002291892188 xtb: 6.6.1 (8d0f1dd)
C            4.37356771124639       -0.02376080977436       -0.05277585421122
C            4.13673974955718       -1.16641088692535       -1.03317599781230
C            3.87556240551343       -2.50589170375395       -0.34193323112573
C            2.62722877202031       -2.54530608672783        0.54190053208890
C            1.33462967584067       -2.28488319450418       -0.22632440638200
C            0.09808108003853       -2.49260659657029        0.64464784862923
C           -1.18489021532077       -2.21304754191198       -0.13378575285111
C           -2.43220378938417       -2.41877653958956        0.72127407628123
C           -3.73927377134568       -2.18268277732083       -0.04053618240738
C           -3.90304013147131       -0.77264306381036       -0.61277479639105
C           -3.99248843555394        0.30830443825820        0.46227925549432
C           -3.97977592776445        1.72812664414223       -0.10854223485702
C           -2.66095189444867        2.14084998104100       -0.76763398629294
C           -1.47839827929641        2.16355895066799        0.19765143319778
C           -0.19668987895777        2.63748426595602       -0.48289559642465
C            0.96449974774430        2.73744625787369        0.50273813398157
C            2.24721355287449        3.22541220829119       -0.16471813244896
C            3.36777722887869        3.43411217766712        0.84774172145472
H            3.48086328785590        0.17147189183127        0.53498228587148
H            5.18828476864843       -0.26654128830124        0.62622301452544
H            4.63343445473972        0.88626358422632       -0.58840019285780
H            5.02046143139819       -1.27804208335089       -1.66583813903594
H            3.29943593666298       -0.91729523131013       -1.68693386408713
H            3.78272310375235       -3.27896321985795       -1.10875803937471
H            4.74337119469967       -2.75475642074198        0.27370029955808
H            2.72074717156889       -1.82059778352965        1.35230142002977
H            2.56803940354668       -3.53572529415667        1.00021481948910
H            1.28441167086741       -2.95763005787450       -1.08574887822233
H            1.32785045215353       -1.26131708328119       -0.60479372384318
H            0.14859829087100       -1.82725773817654        1.51026076756020
H            0.08341090242553       -3.51835589026187        1.02037667906976
H           -1.14910787242562       -1.18538608947047       -0.49777525785905
H           -1.23034392961456       -2.87245854875817       -1.00365541936495
H           -2.38399225578857       -1.76301206034390        1.59232435247406
H           -2.43610810989260       -3.44605029770588        1.09398180969731
H           -4.57535341047834       -2.39178955407105        0.63095320637674
H           -3.79161853161503       -2.89706967432840       -0.86580686191504
H           -3.07090214208221       -0.56275207570399       -1.28348252998405
H           -4.81549803408082       -0.74672987347807       -1.21348645077214
H           -4.91875706893729        0.16770087242903        1.02456078270809
H           -3.16849642924150        0.20237076711811        1.16632847879537
H           -4.78165996568429        1.82085561256561       -0.84482453678128
H           -4.19320987147509        2.42910097341416        0.70216060918278
H           -2.43392801799571        1.47411559775244       -1.60120150439627
H           -2.78848081834795        3.14294909885549       -1.18454981116172
H           -1.30726422929140        1.16614805282312        0.60481812435688
H           -1.70955649373299        2.82811033346684        1.03350838072635
H           -0.36722542359252        3.61626961559501       -0.93743649875726
H            0.06598173662277        1.94469928227930       -1.28613477199782
H            1.14064263707050        1.75894328746894        0.95592058523605
H            0.69232757910754        3.42664146775109        1.30556705885560
H            2.04754091524194        4.16697675010652       -0.68091658897437
H            2.56146484893677        2.49761478909509       -0.91558139425520
H            4.28101001079255        3.75088298654033        0.34995699140674
H            3.08759014073880        4.19686330081805        1.57077273015241
H            3.57269506640455        2.51244427755712        1.38671223764463
56
 energy: -57.963120938029 gnorm: 0.002715813299 xtb: 6.6.1 (8d0f1dd)
C            4.38900888269079       -0.03826558792814       -0.05782120130757
C            4.14813822781270       -1.18174565480967       -1.03429504469609
C            3.87731849867345       -2.51874854813260       -0.34262370346023
C            2.62808672439636       -2.55162115795964        0.53923066087602
C            1.33610801151474       -2.28558061569188       -0.22890596510624
C            0.09750865190830       -2.50204666284730        0.63718164572442
C           -1.18745174180649       -2.21187341134969       -0.13432753117364
C           -2.43310227678501       -2.42072756339401        0.72299866175889
C           -3.74322165871783       -2.18491989188902       -0.03253128595905
C           -3.91169588633155       -0.77757934866872       -0.60903294891574
C           -3.99899988335399        0.30930015112400        0.46056331433661
C           -3.98124897577661        1.72639327181112       -0.11587996917259
C           -2.65963044849039        2.13900441248141       -0.76786968294737
C           -1.47949133107820        2.16615252061076        0.20065395016803
C           -0.19907600867915        2.64825305835785       -0.47683316419954
C            0.96458178741663        2.74981314297739        0.50545473037951
C            2.24648292832684        3.24060826270779       -0.16210198301104
C            3.36260805651283        3.45988597763266        0.85083656972993
H            3.49162916926689        0.17652659124887        0.51669418771047
H            5.19078411536544       -0.28892895653738        0.63444272543191
H            4.67124599004484        0.86515428972859       -0.59455700627931
H            5.03287111285270       -1.29987086975129       -1.66594452156146
H            3.31360206717586       -0.93036581919508       -1.69145634922456
H            3.78246916656596       -3.29219064201643       -1.10979632487959
H            4.74387852888479       -2.77339874827189        0.27385891464160
H            2.72513122224035       -1.82722527212609        1.35026390704758
H            2.56455898673730       -3.54218598993136        0.99883779886722
H            1.28850186204514       -2.95152651381220       -1.09480888266603
H            1.33077663896133       -1.25844580574179       -0.59976621792481
H            0.14908106072228       -1.84883637263774        1.51302929347861
H            0.08162833250742       -3.53360012348739        0.99948741493787
H           -1.15184019391148       -1.18091729820898       -0.49096948506328
H           -1.23812295425179       -2.86459537181163       -1.01003955041959
H           -2.38325669795424       -1.76745137812022        1.59656869390576
H           -2.43503665320115       -3.44958209479972        1.09427715718824
H           -4.57696309429711       -2.39266725414379        0.64371793543044
H           -3.80188707108324       -2.90266257510190       -0.85550764985521
H           -3.08307441086839       -0.56864873982121       -1.28478134106782
H           -4.82724192641191       -0.75625021749098       -1.20668816201708
H           -4.92714065714689        0.17430643563758        1.02269559889554
H           -3.17662047499500        0.20340121827740        1.16689935794178
H           -4.77922664208117        1.81621180232375       -0.85803842442455