56
 energy: -57.963207131176 gnorm: 0.000415710083 xtb: 6.6.1 (8d0f1dd)
C            4.41113257806568       -0.07794923222622       -0.06012804172160
C            4.16503821683887       -1.21907964140460       -1.03935397243988
C            3.87515295988069       -2.55234787052926       -0.34825775021659
C            2.62346497325970       -2.56519615994922        0.53048776055201
C            1.33575373672435       -2.28352077261917       -0.23996355327454
C            0.09663161375634       -2.51488436881249        0.62179577692323
C           -1.19049671306895       -2.19968572510734       -0.13594770154217
C           -2.42982863448687       -2.41618645332079        0.72920564877320
C           -3.74598085025109       -2.18866820250983       -0.01865218965146
C           -3.91353051403798       -0.78527460238903       -0.60383240797324
C           -3.99235105429040        0.30642519933081        0.46111586098317
C           -3.98048029569266        1.71887718971993       -0.12596488032067
C           -2.65656033309415        2.12575402394957       -0.77766749963908
C           -1.48405183011013        2.17313280454311        0.19984586229099
C           -0.20525839259646        2.67126707701818       -0.46909056678585
C            0.95391394243433        2.78092744237973        0.51844120632575
C            2.23311495249226        3.27800403736750       -0.15036097117147
C            3.35107260107101        3.51146260094896        0.85824830240157
H            3.50749759839055        0.15845676064956        0.49501927915344
H            5.19197925732569       -0.34590569955154        0.64874062517148
H            4.72492059156081        0.81708516141248       -0.59247338963150
H            5.05281035472299       -1.34723313464782       -1.66402945397753
H            3.33748189333811       -0.95921969935770       -1.70159389296253
H            3.77186528380700       -3.32510718466547       -1.11459205648723
H            4.73556333031074       -2.81776646284542        0.27172800081755
H            2.72975933458029       -1.83879144763405        1.33806593641653
H            2.54503248359587       -3.55274709898195        0.99325831220208
H            1.28997743442155       -2.93401155322342       -1.11703525781007
H            1.33310854692976       -1.25016028745787       -0.59206042696345
H            0.15395685177954       -1.88423151045044        1.51306285667594
H            0.07688260418945       -3.55479201193235        0.95727450392018
H           -1.14924945959029       -1.16225302140359       -0.47143821673561
H           -1.25363201438241       -2.83453805961747       -1.02327830034069
H           -2.37925870429788       -1.76058132757353        1.60061971009045
H           -2.42292442043585       -3.44403307336576        1.10178591563558
H           -4.57413582201571       -2.38927912014877        0.66593719918379
H           -3.81096511071465       -2.91279510817568       -0.83496765882905
H           -3.08564995837449       -0.58385687006704       -1.28245642166741
H           -4.83057792579650       -0.76288877237434       -1.19859353469606
H           -4.91391095933875        0.17229009798154        1.03353462926087
H           -3.16191837156591        0.20663529354165        1.15848862183374
H           -4.77624904553122        1.79923201439389       -0.87100647171779
H           -4.20498018740048        2.43010803724317        0.67319629026138
H           -2.41782969995603        1.44293209913859       -1.59512166794613
H           -2.78424550117395        3.11879515080364       -1.21681936062525
H           -1.29861862223299        1.17909000888249        0.61001421512070
H           -1.73717494232263        2.83406708500245        1.03268145883101
H           -0.38882064499350        3.65169553358374       -0.91582351541126
H            0.07028425542741        1.98931131349284       -1.27780190969542
H            1.13819859409108        1.80432373164869        0.97332339016334
H            0.67650410576530        3.46948876239591        1.32051024880113
H            2.02228747357251        4.21204991653999       -0.67667647482823
H            2.55854218800147        2.54689895383402       -0.89387740201054
H            4.25672150466343        3.84403953497047        0.35620717294117
H            3.05997834549428        4.27245515348651        1.57926954221271
H            3.57703847702300        2.59612682700641        1.40041782081064
