 Entering Gaussian System
 *********************************************
 Gaussian 98:
 frequency output generated by the xtb code
 *********************************************
                         Standard orientation:
 --------------------------------------------------------------------
  Center     Atomic     Atomic              Coordinates (Angstroms)
  Number     Number      Type              X           Y           Z
 --------------------------------------------------------------------
    1          6             0        7.522147   -3.886308    2.240872
    2          6             0        6.118872   -3.311644    2.387585
    3          6             0        5.883874   -2.131564    1.447735
    4          6             0        4.474160   -1.562401    1.584647
    5          6             0        4.237077   -0.372039    0.658590
    6          6             0        2.814901    0.169943    0.780129
    7          6             0        2.575491    1.358914   -0.147582
    8          6             0        1.178971    1.965707   -0.007973
    9          6             0        0.066329    1.043883   -0.502222
   10          6             0       -1.301583    1.719604   -0.446881
   11          6             0       -2.416275    0.791325   -0.922647
   12          6             0       -3.785413    1.465022   -0.882797
   13          6             0       -4.898269    0.528576   -1.346801
   14          6             0       -6.266193    1.205572   -1.326400
   15          6             0       -7.380829    0.266020   -1.779885
   16          6             0       -8.741123    0.952005   -1.768368
   17          1             0        8.270107   -3.128041    2.462866
   18          1             0        7.685458   -4.239469    1.224843
   19          1             0        7.667888   -4.721720    2.921951
   20          1             0        5.383584   -4.091768    2.176327
   21          1             0        5.966265   -2.985609    3.419189
   22          1             0        6.613473   -1.347358    1.664214
   23          1             0        6.044148   -2.454875    0.416242
   24          1             0        4.309597   -1.251854    2.619447
   25          1             0        3.746798   -2.345779    1.357165
   26          1             0        4.418990   -0.676567   -0.375057
   27          1             0        4.950096    0.420651    0.898290
   28          1             0        2.632581    0.476932    1.812954
   29          1             0        2.112353   -0.630533    0.542436
   30          1             0        3.316575    2.130838    0.075735
   31          1             0        2.729690    1.045587   -1.183023
   32          1             0        0.999002    2.220069    1.039345
   33          1             0        1.142871    2.894978   -0.582555
   34          1             0        0.037272    0.139663    0.108066
   35          1             0        0.278374    0.744037   -1.531460
   36          1             0       -1.507149    2.034441    0.579163
   37          1             0       -1.288303    2.617300   -1.069950
   38          1             0       -2.435533   -0.101258   -0.292406
   39          1             0       -2.203910    0.467542   -1.944554
   40          1             0       -3.994898    1.797465    0.136872
   41          1             0       -3.769903    2.351783   -1.521182
   42          1             0       -4.921471   -0.351980   -0.699966
   43          1             0       -4.680920    0.185295   -2.361323
   44          1             0       -6.245045    2.080928   -1.980237
   45          1             0       -6.480552    1.556126   -0.313791
   46          1             0       -7.162789   -0.090732   -2.789339
   47          1             0       -7.407834   -0.605151   -1.121026
   48          1             0       -9.520502    0.265560   -2.091373
   49          1             0       -8.740931    1.810174   -2.437149
   50          1             0       -8.984072    1.300331   -0.766685
 --------------------------------------------------------------------
     1 basis functions        1 primitive gaussians
     1 alpha electrons        1 beta electrons
 
 Harmonic frequencies (cm**-1), IR intensities (KM/Mole),
 Raman scattering activities (A**4/amu), Raman depolarization ratios,
 reduced masses (AMU), force constants (mDyne/A) and normal coordinates:
                      1                      2                      3
                        a                      a                      a 
 Frequencies --    15.7327                21.2872                29.2770
 Red. masses --    99.0000                99.0000                99.0000
 Frc consts  --    99.0000                99.0000                99.0000
 IR Inten    --    99.0000                99.0000                99.0000
 Raman Activ --     0.0000                 0.0000                 0.0000
 Depolar     --     0.0000                 0.0000                 0.0000
 Atom AN      X      Y      Z        X      Y      Z        X      Y      Z
   1   6     0.31   0.22   0.02    -0.14  -0.18  -0.22     0.08   0.15   0.16
   2   6     0.27   0.12   0.03    -0.04   0.02  -0.03    -0.09  -0.16  -0.19
   3   6     0.15   0.05  -0.02    -0.06  -0.05  -0.10     0.04   0.09   0.10
   4   6     0.11  -0.04  -0.00     0.03   0.12   0.07    -0.09  -0.17  -0.19
   5   6     0.01  -0.09  -0.05    -0.00   0.04  -0.02     0.01   0.05   0.06
   6   6    -0.01  -0.14  -0.01     0.05   0.15   0.09    -0.07  -0.12  -0.13
   7   6    -0.07  -0.17  -0.03     0.01   0.04  -0.03     0.01   0.04   0.05
   8   6    -0.07  -0.18   0.03     0.02   0.08  -0.03     0.00   0.02   0.04
   9   6    -0.09  -0.19   0.11    -0.01   0.00   0.19     0.01   0.01   0.04
  10   6    -0.08  -0.15   0.10     0.01   0.05   0.03     0.02   0.06  -0.09
  11   6    -0.11  -0.12   0.13    -0.01  -0.04   0.27     0.01   0.00   0.06
  12   6    -0.07  -0.04   0.06     0.01   0.02  -0.01     0.03   0.06  -0.13
  13   6    -0.12   0.02   0.05     0.00  -0.08   0.23    -0.00  -0.03   0.13
  14   6    -0.07   0.13  -0.07     0.04  -0.01  -0.15     0.03   0.04  -0.10
  15   6    -0.11   0.20  -0.10     0.03  -0.12   0.09    -0.01  -0.07   0.22
  16   6    -0.05   0.32  -0.24     0.07  -0.03  -0.34     0.02   0.00  -0.04
  17   1     0.07   0.09  -0.01    -0.00  -0.07  -0.13    -0.04   0.07   0.20
  18   1     0.09   0.05   0.01    -0.11  -0.09  -0.06     0.15   0.15   0.03
  19   1     0.11   0.08   0.02    -0.03  -0.04  -0.05    -0.01  -0.01  -0.02
  20   1     0.09   0.02   0.03    -0.05   0.03   0.05     0.04  -0.07  -0.20
  21   1     0.08   0.05   0.01     0.05   0.04  -0.01    -0.16  -0.15  -0.04
  22   1     0.03   0.03  -0.03     0.02  -0.03  -0.08    -0.04   0.04   0.17
  23   1     0.04   0.00  -0.00    -0.08  -0.05  -0.03     0.12   0.12   0.01
  24   1     0.04  -0.00  -0.00     0.06   0.07   0.02    -0.13  -0.14  -0.05
  25   1     0.05  -0.03   0.01    -0.03   0.05   0.08     0.03  -0.06  -0.18
  26   1    -0.01  -0.04  -0.01    -0.04  -0.02  -0.00     0.08   0.10   0.01
  27   1    -0.00  -0.01  -0.03     0.02   0.01  -0.05    -0.03   0.02   0.13
  28   1     0.01  -0.04  -0.00     0.05   0.08   0.02    -0.09  -0.10  -0.03
  29   1     0.00  -0.05   0.01    -0.01   0.05   0.08     0.02  -0.04  -0.12
  30   1    -0.02  -0.05  -0.03     0.01   0.02  -0.05    -0.00   0.00   0.07
  31   1    -0.04  -0.06  -0.01    -0.02  -0.02  -0.00     0.03   0.06   0.00
  32   1    -0.00  -0.04   0.01     0.03   0.07  -0.02    -0.00   0.01   0.01
  33   1    -0.03  -0.06   0.00    -0.00  -0.00  -0.05     0.00   0.01   0.01
  34   1    -0.03  -0.04   0.05    -0.01   0.04   0.11    -0.02   0.02   0.03
  35   1    -0.04  -0.07   0.04    -0.01  -0.07   0.07     0.02  -0.02   0.02
  36   1    -0.02  -0.03   0.03     0.01   0.09  -0.01     0.01   0.07  -0.04
  37   1    -0.01  -0.05   0.02     0.01  -0.03  -0.06     0.02  -0.01  -0.07
  38   1    -0.05  -0.03   0.05    -0.02   0.04   0.16    -0.01   0.04   0.07
  39   1    -0.03  -0.06   0.05     0.01  -0.11   0.11     0.01  -0.06   0.04
  40   1    -0.03   0.00   0.01    -0.01   0.10  -0.04     0.01   0.10  -0.06
  41   1     0.00  -0.02   0.01     0.02  -0.05  -0.08     0.02  -0.03  -0.11
  42   1    -0.07   0.02   0.03    -0.03   0.04   0.16    -0.02   0.05   0.11
  43   1    -0.03  -0.02   0.02     0.02  -0.13   0.11     0.00  -0.10   0.07
  44   1     0.01   0.03  -0.03     0.04  -0.07  -0.14     0.02  -0.05  -0.11
  45   1    -0.03   0.06  -0.03    -0.01   0.11  -0.09     0.01   0.11  -0.06
  46   1    -0.02   0.04  -0.02     0.04  -0.15   0.07    -0.01  -0.13   0.10
  47   1    -0.07   0.07  -0.02    -0.03   0.04   0.12    -0.02   0.05   0.15
  48   1    -0.03   0.11  -0.08     0.02  -0.03  -0.04    -0.00  -0.02   0.06
  49   1     0.02   0.08  -0.08     0.06  -0.09  -0.20     0.02  -0.07  -0.10
  50   1    -0.03   0.12  -0.08    -0.01   0.11  -0.15     0.01   0.11  -0.05
                      4                      5                      6
                        a                      a                      a 
 Frequencies --    38.3787                46.2586                64.3309
 Red. masses --    99.0000                99.0000                99.0000
 Frc consts  --    99.0000                99.0000                99.0000
 IR Inten    --    99.0000                99.0000                99.0000
 Raman Activ --     0.0000                 0.0000                 0.0000
 Depolar     --     0.0000                 0.0000                 0.0000
 Atom AN      X      Y      Z        X      Y      Z        X      Y      Z
   1   6     0.10  -0.04  -0.25     0.16   0.13   0.10     0.03  -0.02  -0.07
   2   6     0.14   0.02  -0.00     0.14   0.08   0.13     0.00  -0.10  -0.09
   3   6     0.03   0.01   0.02    -0.05  -0.17  -0.14     0.06   0.08   0.11
   4   6     0.05   0.03   0.19    -0.04  -0.17  -0.07     0.03   0.03   0.09
   5   6    -0.03   0.02   0.19    -0.12  -0.26  -0.17     0.03   0.03   0.09
   6   6    -0.03   0.00   0.23    -0.07  -0.16  -0.03     0.02   0.02   0.03
   7   6    -0.04  -0.01   0.21    -0.03  -0.09   0.05    -0.01  -0.15  -0.17
   8   6    -0.07  -0.07   0.12     0.02   0.01   0.14     0.05  -0.03  -0.16
   9   6    -0.01  -0.07  -0.01    -0.05   0.13   0.08    -0.08  -0.12   0.30
  10   6    -0.00  -0.05  -0.21    -0.01   0.22   0.05     0.00   0.07  -0.02
  11   6     0.01  -0.04  -0.24    -0.02   0.26   0.00    -0.07   0.04   0.21
  12   6     0.04   0.03  -0.37    -0.02   0.26  -0.07    -0.02   0.16  -0.09
  13   6    -0.02   0.00  -0.18     0.03   0.17  -0.03     0.00   0.15  -0.12
  14   6     0.01   0.07  -0.17    -0.03   0.05  -0.09    -0.04   0.06  -0.06
  15   6    -0.10   0.02   0.20     0.07  -0.13   0.04     0.05   0.03  -0.22
  16   6    -0.07   0.08   0.27    -0.02  -0.30  -0.00    -0.07  -0.21   0.19
  17   1     0.05  -0.02  -0.11     0.04   0.07  -0.06    -0.00  -0.02   0.05
  18   1    -0.03  -0.02  -0.08     0.02  -0.04   0.05     0.04   0.06  -0.04
  19   1     0.05  -0.01  -0.08     0.09   0.09   0.09    -0.00  -0.05  -0.07
  20   1     0.02   0.01   0.04     0.05  -0.01   0.12     0.01  -0.02  -0.09
  21   1     0.10   0.01   0.01     0.07   0.10   0.02    -0.03  -0.09  -0.01
  22   1     0.02   0.00  -0.02    -0.01  -0.03  -0.13     0.01   0.02   0.09
  23   1    -0.03   0.00   0.00    -0.05  -0.12  -0.02     0.05   0.08   0.02
  24   1     0.05   0.02   0.06     0.02  -0.02  -0.03    -0.00   0.00   0.02
  25   1     0.00   0.01   0.08    -0.02  -0.06   0.03     0.02   0.00   0.01
  26   1    -0.02   0.00   0.05    -0.08  -0.11  -0.05     0.02   0.01   0.03
  27   1    -0.01   0.01   0.04    -0.01  -0.08  -0.10     0.00   0.01   0.03
  28   1    -0.00   0.00   0.07     0.01  -0.06  -0.00     0.01   0.05  -0.00
  29   1    -0.01  -0.00   0.07    -0.04  -0.03  -0.01     0.01  -0.01   0.05
  30   1    -0.02   0.01   0.07     0.01  -0.05   0.02     0.02  -0.04  -0.11
  31   1     0.01  -0.00   0.06    -0.03  -0.01   0.01    -0.04  -0.10  -0.04
  32   1    -0.05  -0.03   0.03     0.02  -0.02   0.05     0.06   0.10  -0.06
  33   1    -0.01  -0.01   0.04     0.02   0.02   0.06     0.01  -0.06  -0.13
  34   1    -0.03  -0.02   0.00    -0.04   0.03   0.01    -0.05   0.05   0.21
  35   1     0.04  -0.03   0.01    -0.01   0.04   0.02    -0.04  -0.18   0.13
  36   1    -0.03   0.01  -0.07    -0.01   0.06   0.01    -0.01   0.13  -0.04
  37   1     0.02  -0.03  -0.08     0.02   0.07   0.02     0.05  -0.04  -0.10
  38   1    -0.02   0.00  -0.05    -0.02   0.08   0.00    -0.05   0.07   0.14
  39   1     0.02  -0.04  -0.06     0.01   0.07   0.00    -0.01  -0.08   0.09
  40   1     0.02   0.06  -0.12    -0.02   0.09  -0.03    -0.04   0.09  -0.05
  41   1     0.02  -0.03  -0.15    -0.01   0.06  -0.04     0.04   0.02  -0.06
  42   1    -0.01   0.03  -0.01     0.03   0.06   0.01     0.02   0.03  -0.05
  43   1    -0.03  -0.04  -0.04     0.02   0.03  -0.00     0.00   0.06  -0.04
  44   1    -0.01  -0.02  -0.11    -0.04  -0.01  -0.06    -0.03   0.05   0.02
  45   1     0.04   0.09  -0.06    -0.01   0.04  -0.04    -0.03  -0.03  -0.00
  46   1    -0.08  -0.06   0.07     0.03  -0.06   0.02    -0.01   0.11  -0.11
  47   1    -0.01   0.04   0.11     0.06  -0.02   0.04     0.08  -0.06  -0.15
  48   1    -0.04   0.01   0.16     0.02  -0.13   0.03     0.00  -0.06   0.00
  49   1    -0.04  -0.02   0.03    -0.04  -0.11  -0.03    -0.08   0.01   0.15
  50   1     0.03   0.09   0.07    -0.01  -0.06  -0.01    -0.00  -0.18   0.10
                      7                      8                      9
                        a                      a                      a 
 Frequencies --    86.5367                70.0575                80.4221
 Red. masses --    99.0000                99.0000                99.0000
 Frc consts  --    99.0000                99.0000                99.0000
 IR Inten    --    99.0000                99.0000                99.0000
 Raman Activ --     0.0000                 0.0000                 0.0000
 Depolar     --     0.0000                 0.0000                 0.0000
 Atom AN      X      Y      Z        X      Y      Z        X      Y      Z
   1   6     0.09   0.15   0.16     0.13  -0.01  -0.24     0.13   0.27  -0.05
   2   6    -0.09  -0.20  -0.21     0.11  -0.09  -0.03     0.01  -0.03  -0.05
   3   6    -0.04  -0.08  -0.08     0.03   0.08   0.20    -0.22  -0.13  -0.12
   4   6     0.02   0.03   0.05    -0.01  -0.02   0.25    -0.21  -0.15   0.02
   5   6    -0.04  -0.09  -0.09    -0.05  -0.04   0.24    -0.20  -0.12   0.06
   6   6     0.14   0.27   0.31    -0.08  -0.08   0.09    -0.11   0.08   0.17
   7   6    -0.00  -0.05  -0.06     0.01  -0.18  -0.07     0.02   0.06   0.11
   8   6     0.01  -0.01  -0.06     0.05  -0.05  -0.20     0.03   0.12  -0.07
   9   6    -0.01  -0.00  -0.03    -0.00   0.07  -0.29     0.06   0.05  -0.00
  10   6    -0.03  -0.07   0.16     0.02   0.11  -0.11     0.07   0.08  -0.28
  11   6    -0.00   0.02  -0.07    -0.04   0.18  -0.11     0.07  -0.09   0.05
  12   6    -0.02  -0.01   0.03    -0.06   0.12   0.16     0.07  -0.11  -0.01
  13   6     0.00   0.03  -0.10    -0.05   0.09   0.18     0.05  -0.15   0.13
  14   6     0.00   0.03  -0.10    -0.09   0.01   0.17     0.07  -0.12   0.19
  15   6    -0.03  -0.03   0.10     0.02  -0.06   0.06     0.05   0.06  -0.12
  16   6    -0.01  -0.01   0.00    -0.01  -0.11  -0.25     0.09   0.14   0.00
  17   1    -0.05   0.07   0.19     0.03  -0.01  -0.04    -0.01   0.13  -0.03
  18   1     0.16   0.14   0.04     0.02   0.06  -0.09     0.06   0.08  -0.01
  19   1     0.00  -0.00  -0.00     0.06  -0.04  -0.12     0.10   0.10  -0.00
  20   1     0.04  -0.09  -0.17     0.04  -0.02  -0.04     0.05  -0.05   0.00
  21   1    -0.14  -0.12  -0.06     0.05  -0.09   0.01    -0.01   0.00  -0.02
  22   1     0.01  -0.05  -0.01    -0.01   0.03   0.10    -0.07  -0.02  -0.08
  23   1    -0.03   0.01  -0.03     0.02   0.08   0.04    -0.10  -0.06  -0.03
  24   1     0.06   0.06   0.01    -0.01  -0.01   0.07    -0.04  -0.05   0.01
  25   1    -0.02   0.01   0.08     0.01  -0.02   0.07    -0.07  -0.04   0.01
  26   1    -0.14  -0.10  -0.03     0.01  -0.01   0.08    -0.10  -0.04   0.01
  27   1     0.07  -0.06  -0.15    -0.03   0.00   0.08    -0.02  -0.06  -0.01
  28   1     0.19   0.21   0.08    -0.05   0.01   0.01     0.01   0.05   0.05
  29   1    -0.04   0.10   0.27    -0.01  -0.03   0.04    -0.07   0.05   0.08
  30   1     0.01   0.01  -0.13     0.01  -0.06  -0.04     0.01   0.01   0.04
  31   1    -0.05  -0.12   0.01     0.01  -0.10  -0.01     0.03  -0.00   0.04
  32   1     0.01   0.01  -0.02    -0.00  -0.01  -0.06    -0.01   0.08  -0.03
  33   1     0.00  -0.01  -0.03     0.05  -0.01  -0.06     0.03   0.01  -0.06
  34   1     0.03  -0.02  -0.04    -0.00  -0.01  -0.13    -0.01   0.05   0.05
  35   1    -0.03   0.03  -0.02    -0.02   0.06  -0.10     0.05  -0.05   0.02
  36   1    -0.01  -0.10   0.07     0.03  -0.00  -0.02     0.02   0.13  -0.12
  37   1    -0.02   0.03   0.11    -0.00   0.05  -0.00     0.02  -0.04  -0.18
  38   1    -0.00  -0.03  -0.08     0.02   0.02  -0.07     0.04   0.02   0.08
  39   1     0.01   0.07  -0.04    -0.05   0.10  -0.05     0.00  -0.10   0.03
  40   1    -0.01  -0.05   0.02     0.02  -0.00   0.07     0.03   0.01  -0.02
  41   1    -0.01   0.02   0.05    -0.05   0.06   0.08     0.01  -0.06  -0.04
  42   1    -0.01  -0.01  -0.05    -0.00   0.03   0.05     0.02  -0.03   0.05
  43   1     0.01   0.03  -0.04    -0.01   0.03   0.05    -0.01  -0.06   0.04
  44   1    -0.01  -0.01  -0.06    -0.03   0.01   0.06     0.04   0.01   0.11
  45   1     0.02   0.05  -0.04    -0.05  -0.01   0.05     0.00  -0.10   0.07
  46   1    -0.02  -0.07   0.05     0.06  -0.04   0.04     0.02   0.10  -0.06
  47   1    -0.01   0.03   0.08    -0.02  -0.00   0.04    -0.01  -0.04  -0.11
  48   1    -0.01  -0.02   0.06     0.02  -0.05  -0.09     0.02   0.09  -0.08
  49   1    -0.01  -0.05  -0.06     0.02  -0.05  -0.10     0.06   0.10   0.08
  50   1     0.01   0.07  -0.02    -0.06  -0.00  -0.09     0.01  -0.05   0.03
                     10                     11                     12
                        a                      a                      a 
 Frequencies --   113.3781               103.1513               124.4517
 Red. masses --    99.0000                99.0000                99.0000
 Frc consts  --    99.0000                99.0000                99.0000
 IR Inten    --    99.0000                99.0000                99.0000
 Raman Activ --     0.0000                 0.0000                 0.0000
 Depolar     --     0.0000                 0.0000                 0.0000
 Atom AN      X      Y      Z        X      Y      Z        X      Y      Z
   1   6    -0.02   0.03  -0.04     0.02   0.15  -0.21    -0.04  -0.04  -0.10
   2   6    -0.01   0.04   0.02     0.01   0.05   0.06    -0.02  -0.01  -0.02
   3   6    -0.04   0.01  -0.00    -0.18   0.03   0.08     0.08   0.23   0.26
   4   6    -0.06  -0.03  -0.04    -0.23  -0.09   0.07     0.04   0.14   0.16
   5   6    -0.02   0.03   0.02    -0.14  -0.03   0.12    -0.16  -0.28  -0.31
   6   6    -0.03  -0.01  -0.04    -0.16  -0.05  -0.09    -0.09  -0.14  -0.14
   7   6    -0.01  -0.03  -0.07     0.02  -0.04  -0.13    -0.05  -0.04  -0.03
   8   6     0.02   0.04  -0.04     0.08   0.09  -0.19     0.01   0.06   0.14
   9   6    -0.05  -0.11   0.40     0.04   0.06  -0.03    -0.03   0.14   0.08
  10   6     0.01   0.03  -0.02    -0.00  -0.07   0.30    -0.03   0.13   0.04
  11   6     0.06   0.08  -0.24     0.06  -0.07   0.17     0.06   0.05  -0.01
  12   6     0.01  -0.04   0.03     0.05  -0.11   0.14     0.02  -0.06  -0.10
  13   6     0.07   0.04  -0.26     0.11  -0.03  -0.16     0.06  -0.17  -0.01
  14   6     0.01  -0.10   0.22     0.15   0.04  -0.30     0.07  -0.15   0.03
  15   6    -0.02  -0.08   0.25     0.06  -0.00   0.02    -0.01  -0.03  -0.01
  16   6     0.07   0.10  -0.17     0.09   0.04   0.17     0.09   0.16   0.04
  17   1    -0.00   0.01  -0.04     0.00   0.06  -0.12    -0.00  -0.05   0.07
  18   1    -0.03  -0.01  -0.01    -0.05   0.04  -0.07     0.01   0.10  -0.06
  19   1     0.01   0.02   0.00     0.07   0.05  -0.06    -0.05  -0.09  -0.12
  20   1    -0.01   0.01   0.03     0.01   0.00   0.05    -0.01   0.02  -0.08
  21   1     0.02   0.02   0.01     0.05   0.01   0.02    -0.02  -0.08   0.02
  22   1    -0.02   0.01  -0.00    -0.08   0.03   0.02     0.01   0.06   0.16
  23   1    -0.00  -0.00   0.00    -0.05   0.02   0.02     0.07   0.14   0.06
  24   1    -0.04  -0.03  -0.01    -0.09  -0.05   0.02     0.03   0.15   0.01
  25   1    -0.01  -0.01  -0.04    -0.05  -0.03  -0.02     0.03  -0.01   0.16
  26   1     0.02   0.03   0.00     0.01   0.01   0.04    -0.13  -0.21  -0.07
  27   1    -0.01   0.01   0.04    -0.06  -0.01   0.08    -0.02  -0.06  -0.25
  28   1    -0.03  -0.00  -0.02    -0.10  -0.02  -0.04     0.02  -0.05  -0.03
  29   1     0.00  -0.01  -0.02    -0.03  -0.01  -0.06    -0.06  -0.01  -0.03
  30   1     0.01  -0.01  -0.04     0.03  -0.03  -0.03     0.01  -0.04  -0.00
  31   1    -0.02  -0.02  -0.02     0.01  -0.02  -0.03    -0.04   0.01  -0.02
  32   1     0.05   0.11  -0.03     0.03   0.07  -0.06     0.02  -0.01   0.05
  33   1    -0.01  -0.04  -0.10     0.03   0.00  -0.09     0.01   0.04   0.07
  34   1    -0.04   0.06   0.25     0.07   0.00  -0.03    -0.02   0.04   0.01
  35   1    -0.01  -0.19   0.16    -0.04   0.05  -0.03    -0.00   0.05   0.02
  36   1    -0.07   0.04  -0.03     0.02  -0.10   0.12    -0.03   0.04   0.01
  37   1     0.07  -0.01  -0.03    -0.05   0.02   0.15    -0.01   0.04   0.01
  38   1     0.04  -0.03  -0.14     0.02  -0.04   0.02     0.03   0.02   0.00
  39   1     0.01   0.11  -0.10     0.04   0.01   0.04     0.04   0.01   0.00
  40   1     0.01  -0.12   0.05    -0.02  -0.09   0.05    -0.00   0.01  -0.04
  41   1    -0.02   0.06   0.10     0.03   0.00   0.09    -0.01  -0.04  -0.05
  42   1     0.07  -0.07  -0.19    -0.01  -0.03  -0.07     0.03  -0.04   0.01
  43   1    -0.01   0.15  -0.13     0.08   0.02  -0.05     0.01  -0.06   0.00
  44   1    -0.06   0.02   0.12     0.05  -0.04  -0.15     0.03  -0.03   0.02
  45   1     0.06  -0.10   0.10     0.06   0.09  -0.11     0.03  -0.05   0.01
  46   1     0.03  -0.10   0.11    -0.04  -0.05   0.01    -0.02   0.00  -0.01
  47   1    -0.07   0.02   0.13     0.04   0.03   0.05    -0.03  -0.02  -0.02
  48   1     0.00   0.02  -0.00    -0.00   0.00   0.13    -0.00   0.08  -0.00
  49   1     0.08  -0.04  -0.14    -0.01  -0.02   0.00     0.06   0.06   0.03
  50   1    -0.00   0.15  -0.10     0.09   0.07   0.05     0.04   0.03   0.02
                     13                     14                     15
                        a                      a                      a 
 Frequencies --   139.5469               142.5650               148.0642
 Red. masses --    99.0000                99.0000                99.0000
 Frc consts  --    99.0000                99.0000                99.0000
 IR Inten    --    99.0000                99.0000                99.0000
 Raman Activ --     0.0000                 0.0000                 0.0000
 Depolar     --     0.0000                 0.0000                 0.0000
 Atom AN      X      Y      Z        X      Y      Z        X      Y      Z
   1   6    -0.04  -0.11  -0.09     0.01   0.11  -0.01    -0.04   0.04  -0.06
   2   6     0.08   0.13   0.15    -0.05  -0.04  -0.05    -0.03   0.04   0.02
   3   6     0.10   0.15   0.18    -0.12  -0.09  -0.09    -0.04   0.07   0.07
   4   6    -0.13  -0.29  -0.32    -0.03   0.08   0.12    -0.07  -0.00  -0.01
   5   6    -0.02  -0.06  -0.06     0.03   0.09   0.12    -0.06  -0.06  -0.09
   6   6     0.10   0.19   0.23    -0.04  -0.04  -0.11    -0.01   0.04   0.01
   7   6    -0.01  -0.04  -0.04    -0.01  -0.05  -0.13     0.02   0.08   0.06
   8   6     0.02   0.02  -0.03     0.02  -0.01  -0.04    -0.04  -0.05   0.01
   9   6    -0.02   0.03   0.01    -0.02  -0.03   0.09     0.07  -0.07  -0.19
  10   6    -0.03  -0.01   0.12    -0.04  -0.11   0.36     0.04  -0.18   0.06
  11   6     0.01   0.04  -0.09     0.04   0.05  -0.15    -0.04  -0.20   0.31
  12   6     0.00   0.03  -0.15     0.08   0.13  -0.40     0.10   0.10  -0.19
  13   6    -0.02  -0.07   0.09     0.01  -0.06   0.16     0.04   0.22  -0.27
  14   6    -0.01  -0.05   0.04     0.01  -0.08   0.20    -0.03   0.06   0.27
  15   6    -0.02  -0.00  -0.04     0.04   0.00  -0.02     0.06   0.00   0.17
  16   6    -0.01   0.03   0.00     0.05   0.03  -0.04     0.02  -0.08  -0.14
  17   1     0.04  -0.05  -0.12    -0.02   0.06   0.01    -0.01   0.01  -0.02
  18   1    -0.10  -0.09  -0.02     0.02   0.04  -0.00    -0.02   0.03  -0.03
  19   1     0.00  -0.00   0.01     0.02   0.04  -0.00    -0.00   0.00  -0.03
  20   1    -0.02   0.07   0.08     0.01  -0.03  -0.01    -0.01   0.01  -0.00
  21   1     0.09   0.05   0.05    -0.03  -0.01  -0.02    -0.00  -0.00   0.01
  22   1    -0.06   0.10   0.15    -0.00  -0.04  -0.08    -0.03   0.03   0.04
  23   1     0.17   0.09   0.06    -0.10  -0.05  -0.03     0.01   0.04   0.02
  24   1    -0.20  -0.19  -0.09     0.04   0.04   0.04    -0.04   0.01  -0.01
  25   1     0.06  -0.12  -0.26    -0.05   0.05   0.06    -0.01  -0.01  -0.00
  26   1    -0.06   0.03  -0.04     0.07   0.04   0.04    -0.05  -0.05  -0.02
  27   1     0.04  -0.07   0.01    -0.02   0.04   0.07     0.00  -0.03  -0.06
  28   1     0.13   0.15   0.06    -0.07  -0.02  -0.04     0.02   0.01   0.01
  29   1    -0.03   0.07   0.19     0.02  -0.03  -0.07    -0.02   0.03   0.01
  30   1     0.01  -0.00  -0.10     0.01  -0.02  -0.05    -0.01   0.03   0.05
  31   1    -0.05  -0.09   0.00    -0.02  -0.02  -0.04     0.03   0.04   0.02
  32   1     0.01   0.02  -0.01     0.03   0.01  -0.01    -0.04  -0.06   0.01
  33   1     0.01  -0.00  -0.02    -0.01  -0.01  -0.02    -0.02   0.01   0.04
  34   1     0.01  -0.00  -0.01     0.04  -0.03   0.00     0.05  -0.06  -0.12
  35   1    -0.02   0.02  -0.00    -0.05   0.02   0.01     0.02   0.06  -0.08
  36   1    -0.02  -0.06   0.05    -0.03  -0.17   0.14     0.06  -0.04   0.03
  37   1    -0.01   0.03   0.08    -0.01   0.05   0.22    -0.04  -0.05   0.01
  38   1    -0.01  -0.00  -0.05    -0.05  -0.02  -0.09    -0.09   0.02   0.20
  39   1     0.03   0.04  -0.03     0.09   0.07  -0.04     0.01  -0.20   0.14
  40   1     0.01   0.06  -0.06     0.05   0.18  -0.16    -0.02   0.10  -0.09
  41   1    -0.01  -0.03  -0.09     0.02  -0.05  -0.24     0.13  -0.01  -0.10
  42   1     0.00   0.02   0.08     0.05   0.05   0.14     0.07  -0.00  -0.16
  43   1    -0.02  -0.08   0.04    -0.05  -0.12   0.07    -0.04   0.17  -0.13
  44   1     0.01  -0.01   0.02     0.01   0.00   0.09    -0.08   0.08   0.16
  45   1    -0.02  -0.02   0.01    -0.01  -0.06   0.07     0.04  -0.09   0.12
  46   1    -0.01   0.02  -0.02     0.03   0.04  -0.02     0.07  -0.02   0.07
  47   1    -0.01  -0.02  -0.03    -0.01  -0.03  -0.04     0.00   0.01   0.06
  48   1    -0.00   0.03  -0.04     0.02   0.04  -0.10     0.03  -0.06  -0.04
  49   1     0.01   0.04   0.03     0.05   0.06   0.05     0.02  -0.06  -0.09
  50   1    -0.01  -0.03   0.01    -0.03  -0.06   0.00    -0.04   0.03  -0.07
                     16                     17                     18
                        a                      a                      a 
 Frequencies --   233.9541               234.1119               151.2976
 Red. masses --    99.0000                99.0000                99.0000
 Frc consts  --    99.0000                99.0000                99.0000
 IR Inten    --    99.0000                99.0000                99.0000
 Raman Activ --     0.0000                 0.0000                 0.0000
 Depolar     --     0.0000                 0.0000                 0.0000
 Atom AN      X      Y      Z        X      Y      Z        X      Y      Z
   1   6    -0.02  -0.02  -0.04    -0.00  -0.00  -0.01    -0.09   0.10  -0.10
   2   6     0.08   0.16   0.19     0.01   0.02   0.03    -0.09   0.08  -0.00
   3   6    -0.05  -0.09  -0.09    -0.01  -0.01  -0.01    -0.09   0.13   0.07
   4   6    -0.04  -0.06  -0.07    -0.01  -0.01  -0.01    -0.11   0.05  -0.00
   5   6     0.02   0.02   0.02     0.00   0.00   0.00    -0.11  -0.08  -0.16
   6   6     0.02   0.02   0.01     0.00   0.00   0.00    -0.05   0.02  -0.04
   7   6    -0.00  -0.00  -0.01    -0.00  -0.01  -0.01     0.00   0.11   0.08
   8   6    -0.00  -0.02   0.01    -0.00  -0.00   0.01    -0.07  -0.09   0.03
   9   6    -0.00  -0.01  -0.00    -0.00   0.01  -0.00     0.07  -0.30   0.11
  10   6     0.00   0.00  -0.00    -0.00   0.01  -0.01     0.09  -0.27  -0.06
  11   6    -0.01   0.01   0.00    -0.00  -0.01   0.02     0.05  -0.09  -0.24
  12   6    -0.00   0.01  -0.00    -0.00  -0.01   0.02     0.13   0.04   0.12
  13   6     0.00  -0.00   0.01     0.01   0.03  -0.10    -0.00   0.16   0.24
  14   6    -0.00  -0.02   0.02     0.02   0.04  -0.13     0.05   0.27  -0.02
  15   6     0.01   0.00  -0.04    -0.03  -0.07   0.25     0.19   0.11  -0.02
  16   6     0.01   0.01   0.01     0.01   0.01  -0.04     0.03  -0.21  -0.01
  17   1     0.04  -0.18   0.45     0.01  -0.03   0.07    -0.03   0.03  -0.01
  18   1     0.10   0.46  -0.16     0.01   0.07  -0.02    -0.03   0.06  -0.04
  19   1    -0.18  -0.34  -0.39    -0.03  -0.05  -0.06    -0.01   0.01  -0.06
  20   1    -0.01   0.05   0.15    -0.00   0.01   0.02    -0.03   0.03  -0.01
  21   1     0.10   0.12   0.04     0.02   0.02   0.01    -0.02   0.00   0.01
  22   1    -0.00  -0.01  -0.13    -0.00  -0.00  -0.02    -0.04   0.04   0.05
  23   1    -0.06  -0.12  -0.01    -0.01  -0.02  -0.00    -0.00   0.06   0.02
  24   1    -0.01  -0.04  -0.01    -0.00  -0.01  -0.00    -0.04   0.05  -0.01
  25   1    -0.02  -0.01  -0.04    -0.00  -0.00  -0.01    -0.02  -0.00   0.02
  26   1     0.02   0.03   0.00     0.00   0.01   0.00    -0.08  -0.07  -0.04
  27   1     0.00  -0.00   0.03     0.00   0.00   0.01    -0.01  -0.03  -0.10
  28   1     0.00   0.01   0.00     0.00   0.00  -0.00     0.01  -0.01  -0.00
  29   1     0.01   0.00   0.01     0.00  -0.00   0.00    -0.03   0.03  -0.02
  30   1    -0.00   0.00  -0.01     0.00  -0.00  -0.01    -0.03   0.04   0.08
  31   1    -0.01  -0.01  -0.00    -0.01  -0.00  -0.00     0.04   0.07   0.02
  32   1     0.00  -0.01   0.00     0.00  -0.01   0.00    -0.03  -0.01   0.00
  33   1    -0.00  -0.00   0.01    -0.00   0.00   0.01    -0.06  -0.04  -0.01
  34   1    -0.00  -0.00  -0.00    -0.00   0.00  -0.00     0.02  -0.05   0.08
  35   1    -0.00  -0.00  -0.00     0.00   0.00  -0.00     0.04  -0.13   0.05
  36   1     0.00   0.00  -0.00     0.00   0.01  -0.01    -0.00  -0.09  -0.02
  37   1     0.00   0.00  -0.00    -0.00  -0.00  -0.01     0.07  -0.06   0.00
  38   1    -0.00   0.00   0.00     0.00  -0.00   0.01     0.01  -0.08  -0.14
  39   1    -0.00   0.00   0.00    -0.00  -0.01   0.01    -0.02   0.06  -0.10
  40   1    -0.00   0.01  -0.00    -0.01  -0.03   0.01     0.11  -0.01   0.06
  41   1    -0.00   0.00  -0.00     0.01   0.01   0.03     0.02   0.03   0.06
  42   1     0.00   0.00   0.01    -0.01  -0.00  -0.04    -0.04   0.08   0.12
  43   1     0.00  -0.00   0.00     0.02   0.02  -0.03     0.01  -0.02   0.09
  44   1     0.00   0.00   0.02    -0.01  -0.05  -0.12     0.04   0.04  -0.05
  45   1    -0.01  -0.02   0.01     0.04   0.11  -0.06    -0.02   0.13  -0.03
  46   1    -0.00   0.02  -0.02    -0.01  -0.12   0.11     0.07   0.05  -0.01
  47   1     0.00  -0.01  -0.02    -0.03   0.04   0.15     0.11   0.03  -0.01
  48   1    -0.01  -0.02   0.08     0.08   0.16  -0.52     0.06  -0.11  -0.03
  49   1    -0.03  -0.04  -0.05     0.21   0.28   0.34    -0.04  -0.04   0.02
  50   1     0.05   0.06  -0.01    -0.27  -0.40   0.06    -0.02  -0.10   0.00
                     19                     20                     21
                        a                      a                      a 
 Frequencies --   211.7575               196.1140               248.4744
 Red. masses --    99.0000                99.0000                99.0000
 Frc consts  --    99.0000                99.0000                99.0000
 IR Inten    --    99.0000                99.0000                99.0000
 Raman Activ --     0.0000                 0.0000                 0.0000
 Depolar     --     0.0000                 0.0000                 0.0000
 Atom AN      X      Y      Z        X      Y      Z        X      Y      Z
   1   6    -0.01   0.21  -0.17     0.14   0.01  -0.09    -0.00  -0.03   0.03
   2   6    -0.10  -0.10   0.12     0.08  -0.18   0.14     0.02   0.03  -0.03
   3   6    -0.21  -0.10   0.16    -0.06  -0.15   0.20     0.02   0.02  -0.05
   4   6    -0.15   0.03   0.02    -0.05  -0.07   0.09     0.01  -0.01   0.01
   5   6     0.22   0.07  -0.02     0.13  -0.12  -0.08    -0.04   0.02   0.07
   6   6     0.24   0.11  -0.14     0.19   0.10  -0.17    -0.07  -0.05  -0.01
   7   6    -0.04  -0.05  -0.25     0.25   0.30   0.04    -0.08  -0.18  -0.18
   8   6    -0.05  -0.22   0.34     0.15   0.19  -0.06     0.10   0.18   0.19
   9   6    -0.04  -0.05   0.00     0.13   0.08   0.10     0.05   0.30   0.09
  10   6     0.02   0.06  -0.12     0.02  -0.05   0.06    -0.06   0.03  -0.04
  11   6    -0.02   0.04   0.01    -0.00  -0.04  -0.03     0.16  -0.26  -0.07
  12   6    -0.02   0.02   0.05    -0.06  -0.07  -0.05     0.14  -0.29  -0.07
  13   6     0.04  -0.01  -0.00    -0.18  -0.01  -0.01    -0.10  -0.02  -0.01
  14   6     0.03  -0.04  -0.02    -0.20   0.02  -0.02     0.01   0.26   0.09
  15   6     0.03  -0.03  -0.01    -0.24   0.03  -0.02     0.03   0.23   0.07
  16   6     0.06   0.03   0.02    -0.29  -0.05  -0.06    -0.18  -0.18  -0.08
  17   1    -0.04   0.12  -0.11     0.02   0.03  -0.03     0.01  -0.02   0.02
  18   1    -0.05   0.07  -0.06     0.02   0.05  -0.04     0.01  -0.01   0.01
  19   1     0.11   0.07  -0.06     0.10  -0.01  -0.06    -0.02  -0.01   0.01
  20   1    -0.00  -0.06   0.04     0.04  -0.07   0.05    -0.00   0.01  -0.01
  21   1    -0.01  -0.05   0.04     0.04  -0.08   0.05     0.00   0.02  -0.01
  22   1    -0.05  -0.03   0.05    -0.02  -0.04   0.06     0.01   0.01  -0.02
  23   1    -0.05  -0.03   0.05    -0.01  -0.04   0.06    -0.00   0.00  -0.01
  24   1    -0.08   0.01  -0.00    -0.03   0.02   0.01     0.01  -0.02   0.01
  25   1    -0.07   0.04  -0.03    -0.03  -0.01   0.03     0.01  -0.00  -0.00
  26   1     0.10   0.02   0.00     0.03  -0.08  -0.01     0.01   0.03   0.02
  27   1     0.07  -0.00   0.03     0.07  -0.06  -0.04    -0.03   0.02   0.04
  28   1     0.09   0.08  -0.05     0.04  -0.01  -0.04    -0.02   0.03  -0.01
  29   1     0.07   0.01   0.02     0.04   0.06  -0.10    -0.01  -0.03   0.03
  30   1     0.00   0.00  -0.18     0.04   0.10   0.09     0.06  -0.10  -0.17
  31   1    -0.13  -0.04  -0.08     0.13   0.15  -0.00    -0.16  -0.12  -0.05
  32   1     0.03  -0.24   0.15     0.04   0.10  -0.03     0.08  -0.00   0.08
  33   1    -0.08   0.03   0.25     0.03   0.03  -0.06     0.05   0.08   0.11
  34   1    -0.06  -0.05  -0.05     0.06   0.04   0.06     0.03   0.07   0.00
  35   1     0.03   0.04  -0.01     0.03  -0.01   0.04     0.04   0.11   0.02
  36   1     0.01   0.07  -0.05    -0.01  -0.03   0.02    -0.07   0.02  -0.02
  37   1     0.03  -0.01  -0.08    -0.00  -0.00   0.03    -0.06  -0.00  -0.03
  38   1     0.01   0.03   0.02    -0.00  -0.02  -0.02     0.08  -0.06  -0.01
  39   1    -0.02  -0.01   0.01     0.01   0.01  -0.01     0.07  -0.07  -0.01
  40   1    -0.01  -0.01   0.02    -0.01  -0.01  -0.01     0.06  -0.08  -0.01
  41   1    -0.01   0.01   0.02    -0.02  -0.02  -0.02     0.06  -0.08  -0.01
  42   1     0.01  -0.01  -0.01    -0.06   0.00  -0.00    -0.08  -0.01  -0.01
  43   1     0.02   0.01  -0.00    -0.06  -0.01  -0.00    -0.08  -0.01  -0.01
  44   1     0.01  -0.01  -0.00    -0.06   0.00  -0.01     0.03   0.08   0.03
  45   1     0.01  -0.01  -0.01    -0.06   0.01  -0.01     0.02   0.07   0.03
  46   1     0.00  -0.01  -0.00    -0.06   0.01  -0.01     0.04   0.07   0.03
  47   1     0.00  -0.01  -0.00    -0.07   0.01  -0.01     0.05   0.07   0.02
  48   1     0.00   0.02   0.02    -0.06  -0.03  -0.03     0.03  -0.15  -0.03
  49   1     0.02   0.00   0.00    -0.10  -0.01  -0.02    -0.13  -0.07  -0.05
  50   1     0.03   0.02   0.01    -0.10  -0.02  -0.02    -0.12  -0.05  -0.04
                     22                     23                     24
                        a                      a                      a 
 Frequencies --   278.8254               331.3791               370.3894
 Red. masses --    99.0000                99.0000                99.0000
 Frc consts  --    99.0000                99.0000                99.0000
 IR Inten    --    99.0000                99.0000                99.0000
 Raman Activ --     0.0000                 0.0000                 0.0000
 Depolar     --     0.0000                 0.0000                 0.0000
 Atom AN      X      Y      Z        X      Y      Z        X      Y      Z
   1   6     0.24  -0.19   0.06    -0.15   0.25  -0.15    -0.03   0.07  -0.05
   2   6     0.20  -0.22   0.10    -0.22  -0.07   0.17    -0.07  -0.07   0.09
   3   6     0.04  -0.17   0.13     0.02  -0.11   0.09     0.05  -0.08   0.05
   4   6     0.02  -0.03   0.01     0.15   0.09  -0.15     0.10   0.05  -0.08
   5   6    -0.01   0.03  -0.03     0.22   0.06  -0.15     0.02   0.06  -0.05
   6   6    -0.03   0.16  -0.12     0.13  -0.21   0.15    -0.05  -0.10   0.05
   7   6    -0.21   0.22  -0.08    -0.02  -0.17   0.27    -0.08  -0.12   0.02
   8   6    -0.28   0.13  -0.09    -0.02  -0.02  -0.17     0.09   0.28   0.08
   9   6    -0.25   0.07  -0.02    -0.16   0.09  -0.04     0.15   0.18   0.05
  10   6    -0.26  -0.00  -0.03    -0.14   0.13   0.04    -0.07  -0.25  -0.10
  11   6    -0.12  -0.10  -0.05    -0.01   0.00   0.00    -0.12  -0.23  -0.09
  12   6    -0.02  -0.03  -0.01    -0.04  -0.12  -0.05     0.04   0.16   0.06
  13   6     0.03   0.00   0.01    -0.02  -0.10  -0.04    -0.07   0.28   0.08
  14   6     0.14   0.11   0.05     0.09   0.10   0.05    -0.21  -0.06  -0.05
  15   6     0.25   0.04   0.05     0.10   0.12   0.05    -0.01  -0.28  -0.09
  16   6     0.24  -0.03   0.03     0.03  -0.06  -0.01     0.20   0.09   0.06
  17   1     0.07  -0.05   0.02    -0.09   0.13  -0.07    -0.03   0.05  -0.03
  18   1     0.07  -0.05   0.02    -0.09   0.13  -0.07    -0.03   0.05  -0.03
  19   1     0.07  -0.06   0.01     0.08   0.06  -0.09     0.05   0.01  -0.04
  20   1     0.07  -0.08   0.04    -0.05  -0.03   0.05    -0.01  -0.02   0.03
  21   1     0.07  -0.08   0.04    -0.05  -0.02   0.05    -0.01  -0.02   0.03
  22   1     0.02  -0.05   0.04     0.04  -0.07   0.04     0.03  -0.04   0.02
  23   1     0.02  -0.05   0.04     0.04  -0.07   0.04     0.03  -0.04   0.02
  24   1    -0.00  -0.00   0.00     0.02   0.04  -0.05     0.02   0.02  -0.03
  25   1    -0.00  -0.00   0.00     0.02   0.05  -0.05     0.02   0.02  -0.02
  26   1     0.00   0.00  -0.00     0.04   0.03  -0.05     0.00   0.03  -0.02
  27   1     0.00   0.00  -0.01     0.05   0.03  -0.05    -0.01   0.03  -0.01
  28   1    -0.01   0.04  -0.03     0.07  -0.11   0.06    -0.00  -0.03   0.02
  29   1    -0.01   0.05  -0.04     0.07  -0.09   0.04     0.01  -0.05   0.03
  30   1    -0.09   0.09  -0.02    -0.03  -0.04   0.13     0.05  -0.09  -0.07
  31   1    -0.06   0.08  -0.03     0.07  -0.03   0.08    -0.10  -0.08   0.01
  32   1    -0.08   0.06  -0.03    -0.05   0.11  -0.09     0.03   0.11   0.01
  33   1    -0.09   0.03  -0.04     0.08  -0.06  -0.15     0.07   0.06  -0.01
  34   1    -0.06   0.03   0.01    -0.05   0.03   0.00     0.10   0.05   0.02
  35   1    -0.08   0.01  -0.00    -0.08   0.00  -0.01     0.09   0.06   0.02
  36   1    -0.09  -0.01  -0.01    -0.04   0.02   0.01    -0.05  -0.07  -0.03
  37   1    -0.10  -0.00  -0.01    -0.06   0.04   0.02    -0.06  -0.07  -0.03
  38   1    -0.03  -0.03  -0.02     0.02   0.00   0.00    -0.07  -0.07  -0.03
  39   1    -0.03  -0.02  -0.02     0.02   0.01   0.00    -0.07  -0.07  -0.03
  40   1     0.00  -0.01  -0.00    -0.02  -0.03  -0.02     0.06   0.05   0.03
  41   1     0.00  -0.01  -0.00    -0.02  -0.04  -0.02     0.06   0.05   0.03
  42   1    -0.00   0.00   0.00    -0.03  -0.03  -0.01    -0.00   0.08   0.02
  43   1    -0.00   0.00  -0.00    -0.03  -0.03  -0.01    -0.00   0.08   0.03
  44   1     0.04   0.03   0.02     0.05   0.03   0.02    -0.12  -0.02  -0.03
  45   1     0.04   0.03   0.02     0.05   0.03   0.02    -0.12  -0.02  -0.03
  46   1     0.09   0.01   0.02     0.05   0.03   0.02    -0.01  -0.08  -0.03
  47   1     0.09   0.01   0.02     0.05   0.03   0.02    -0.01  -0.08  -0.02
  48   1     0.08  -0.01   0.01     0.04  -0.05  -0.01    -0.04   0.13   0.03
  49   1     0.07  -0.01   0.01    -0.02  -0.02  -0.01     0.14   0.04   0.04
  50   1     0.07  -0.01   0.01    -0.02  -0.02  -0.01     0.14   0.04   0.03
                     25                     26                     27
                        a                      a                      a 
 Frequencies --   395.6280               466.6657               470.2977
 Red. masses --    99.0000                99.0000                99.0000
 Frc consts  --    99.0000                99.0000                99.0000
 IR Inten    --    99.0000                99.0000                99.0000
 Raman Activ --     0.0000                 0.0000                 0.0000
 Depolar     --     0.0000                 0.0000                 0.0000
 Atom AN      X      Y      Z        X      Y      Z        X      Y      Z
   1   6     0.12  -0.04  -0.02     0.01  -0.03   0.03    -0.23   0.20  -0.07
   2   6     0.03  -0.21   0.17     0.05   0.10  -0.11    -0.19   0.02   0.07
   3   6     0.03  -0.16   0.12    -0.12   0.09  -0.02     0.34  -0.08  -0.08
   4   6     0.08   0.17  -0.19    -0.14  -0.05   0.10     0.31  -0.27   0.10
   5   6    -0.14   0.23  -0.14     0.21  -0.09  -0.01    -0.06  -0.22   0.22
   6   6    -0.24   0.02   0.05     0.22  -0.06  -0.03    -0.03   0.10  -0.08
   7   6    -0.25  -0.02  -0.00    -0.11  -0.03   0.09    -0.03   0.16  -0.14
   8   6    -0.15   0.05  -0.01    -0.17  -0.04  -0.09    -0.10   0.07   0.00
   9   6     0.09  -0.11  -0.04    -0.24   0.09  -0.02    -0.06   0.01   0.00
  10   6     0.23   0.01   0.03    -0.14   0.12   0.02    -0.07  -0.05  -0.03
  11   6     0.22   0.07   0.06     0.23  -0.19  -0.03    -0.03  -0.04  -0.02
  12   6     0.20   0.06   0.05     0.38   0.03   0.06     0.07   0.11   0.05
  13   6     0.19   0.01   0.03     0.18   0.23   0.10     0.18   0.00   0.03
  14   6     0.05  -0.12  -0.03    -0.05  -0.10  -0.04     0.11  -0.09  -0.01
  15   6    -0.19   0.05  -0.01    -0.15  -0.10  -0.05    -0.06   0.06   0.01
  16   6    -0.27   0.00  -0.04    -0.14   0.04  -0.01    -0.13   0.00  -0.02
  17   1     0.01   0.02  -0.02     0.03  -0.04   0.02    -0.10   0.10  -0.05
  18   1     0.01   0.02  -0.02     0.02  -0.04   0.02    -0.10   0.11  -0.04
  19   1     0.10  -0.02  -0.03    -0.06  -0.00   0.03     0.04   0.05  -0.06
  20   1     0.03  -0.08   0.05     0.01   0.03  -0.03    -0.07   0.03   0.00
  21   1     0.03  -0.07   0.05     0.01   0.03  -0.03    -0.07   0.03   0.01
  22   1     0.04  -0.07   0.04    -0.06   0.05  -0.02     0.12  -0.05  -0.01
  23   1     0.04  -0.07   0.05    -0.06   0.05  -0.02     0.11  -0.05  -0.01
  24   1     0.00   0.06  -0.06    -0.05  -0.00   0.02     0.14  -0.12   0.05
  25   1     0.01   0.06  -0.06    -0.05  -0.00   0.02     0.13  -0.12   0.05
  26   1    -0.06   0.10  -0.05     0.08  -0.06   0.01    -0.01  -0.07   0.06
  27   1    -0.08   0.10  -0.05     0.08  -0.05   0.01    -0.01  -0.07   0.06
  28   1    -0.06   0.01   0.01     0.08  -0.04   0.00    -0.04   0.06  -0.04
  29   1    -0.05  -0.02   0.03     0.08  -0.04   0.00    -0.04   0.06  -0.03
  30   1    -0.04  -0.03  -0.04    -0.07   0.03   0.04    -0.02   0.06  -0.05
  31   1    -0.11  -0.04   0.00    -0.00   0.02   0.02    -0.03   0.06  -0.04
  32   1    -0.07   0.03  -0.01    -0.07   0.05  -0.04    -0.02  -0.01   0.01
  33   1    -0.05   0.00  -0.02    -0.01  -0.04  -0.07    -0.07   0.03   0.03
  34   1     0.03  -0.03  -0.01    -0.09   0.03  -0.01    -0.01   0.01   0.00
  35   1     0.04  -0.02  -0.01    -0.10   0.02  -0.01    -0.01   0.00   0.00
  36   1     0.09   0.00   0.02    -0.08   0.03   0.00    -0.03  -0.01  -0.01
  37   1     0.09   0.01   0.02    -0.08   0.03  -0.00    -0.03  -0.02  -0.01
  38   1     0.06   0.02   0.02     0.09  -0.05  -0.00    -0.03  -0.01  -0.01
  39   1     0.06   0.02   0.02     0.09  -0.05  -0.01    -0.03  -0.01  -0.01
  40   1     0.06   0.02   0.01     0.17   0.01   0.03     0.03   0.03   0.02
  41   1     0.06   0.02   0.01     0.17   0.02   0.03     0.03   0.03   0.01
  42   1     0.08   0.00   0.01     0.07   0.06   0.03     0.08   0.00   0.01
  43   1     0.08   0.00   0.01     0.07   0.06   0.03     0.08   0.01   0.01
  44   1     0.02  -0.03  -0.00    -0.05  -0.03  -0.01     0.04  -0.02   0.00
  45   1     0.02  -0.03  -0.01    -0.05  -0.03  -0.02     0.05  -0.02  -0.00
  46   1    -0.07   0.01  -0.01    -0.07  -0.03  -0.02    -0.03   0.01   0.00
  47   1    -0.07   0.01  -0.01    -0.07  -0.03  -0.02    -0.03   0.01  -0.00
  48   1    -0.05  -0.03  -0.02    -0.06   0.03   0.00    -0.01  -0.03  -0.01
  49   1    -0.10  -0.00  -0.02    -0.02   0.01   0.00    -0.06  -0.00  -0.01
  50   1    -0.10  -0.00  -0.02    -0.02   0.01   0.00    -0.06  -0.00  -0.01
                     28                     29                     30
                        a                      a                      a 
 Frequencies --   480.7474               769.2660               766.2271
 Red. masses --    99.0000                99.0000                99.0000
 Frc consts  --    99.0000                99.0000                99.0000
 IR Inten    --    99.0000                99.0000                99.0000
 Raman Activ --     0.0000                 0.0000                 0.0000
 Depolar     --     0.0000                 0.0000                 0.0000
 Atom AN      X      Y      Z        X      Y      Z        X      Y      Z
   1   6    -0.04   0.05  -0.02     0.00   0.00   0.00     0.00  -0.00   0.00
   2   6    -0.06  -0.05   0.07     0.01   0.01   0.01    -0.00  -0.00   0.01
   3   6     0.13  -0.06  -0.01     0.01   0.02   0.02     0.01   0.01   0.01
   4   6     0.13  -0.02  -0.04     0.01   0.03   0.03     0.02   0.04   0.03
   5   6    -0.15   0.01   0.05     0.01   0.02   0.03    -0.01   0.06   0.07
   6   6    -0.13   0.10  -0.01     0.01   0.02   0.02     0.04   0.11   0.05
   7   6     0.07   0.09  -0.07     0.01   0.01   0.01     0.08   0.05   0.06
   8   6    -0.02  -0.20  -0.05     0.00  -0.01   0.01     0.03  -0.07   0.08
   9   6    -0.10  -0.07  -0.01    -0.00  -0.00  -0.01    -0.04  -0.07   0.09
  10   6     0.08   0.25   0.10     0.00   0.02  -0.04    -0.04  -0.01   0.08
  11   6     0.30  -0.00   0.04     0.01   0.03  -0.08    -0.01  -0.02   0.04
  12   6     0.13  -0.25  -0.06     0.02   0.03  -0.11     0.00  -0.01   0.01
  13   6    -0.27   0.14   0.01     0.02   0.04  -0.11     0.01   0.01  -0.00
  14   6    -0.29   0.15   0.00     0.01   0.03  -0.09     0.00   0.00  -0.01
  15   6     0.02  -0.20  -0.06     0.01   0.01  -0.05     0.00   0.00  -0.01
  16   6     0.19   0.02   0.03     0.00   0.00  -0.00    -0.00   0.00  -0.00
  17   1    -0.03   0.04  -0.02     0.01  -0.01  -0.01     0.00  -0.00  -0.00
  18   1    -0.03   0.04  -0.02    -0.02  -0.00  -0.00    -0.01  -0.00  -0.00
  19   1     0.04   0.01  -0.03    -0.00  -0.00  -0.00     0.00  -0.00  -0.00
  20   1    -0.02  -0.01   0.02     0.02   0.00  -0.06     0.00   0.00  -0.03
  21   1    -0.02  -0.01   0.02    -0.04  -0.04   0.01    -0.01  -0.02   0.01
  22   1     0.06  -0.04   0.01     0.04  -0.01  -0.08     0.05  -0.02  -0.07
  23   1     0.05  -0.04   0.01    -0.08  -0.05   0.01    -0.07  -0.04   0.00
  24   1     0.05  -0.02  -0.00    -0.08  -0.07   0.02    -0.10  -0.12   0.03
  25   1     0.05  -0.02  -0.00     0.04  -0.00  -0.10     0.05   0.01  -0.16
  26   1    -0.06   0.02   0.01    -0.08  -0.07   0.02    -0.22  -0.15   0.03
  27   1    -0.05   0.02   0.00     0.04   0.00  -0.10     0.11  -0.02  -0.23
  28   1    -0.05   0.05  -0.01    -0.07  -0.05   0.01    -0.24  -0.18   0.03
  29   1    -0.06   0.05  -0.01     0.04  -0.00  -0.08     0.11   0.02  -0.29
  30   1    -0.03   0.05   0.03     0.01   0.01  -0.04     0.06   0.04  -0.21
  31   1     0.08   0.05  -0.02    -0.03  -0.04   0.01    -0.12  -0.15   0.04
  32   1     0.01  -0.11   0.00    -0.01  -0.00   0.00     0.02   0.19  -0.03
  33   1    -0.05  -0.03   0.03     0.00  -0.00   0.00    -0.01  -0.14  -0.17
  34   1    -0.08  -0.02  -0.01    -0.03   0.03   0.04     0.03  -0.19  -0.23
  35   1    -0.07  -0.03  -0.01     0.02  -0.05   0.02    -0.04   0.28  -0.07
  36   1     0.03   0.07   0.03    -0.02  -0.15   0.03    -0.05   0.24  -0.06
  37   1     0.04   0.06   0.02    -0.00   0.09   0.12     0.06  -0.14  -0.19
  38   1     0.15   0.00   0.02    -0.08   0.16   0.19     0.00  -0.10  -0.12
  39   1     0.15   0.01   0.02     0.04  -0.24   0.07     0.02   0.15  -0.04
  40   1     0.06  -0.06  -0.01     0.01  -0.32   0.08    -0.02   0.05  -0.02
  41   1     0.06  -0.06  -0.01    -0.05   0.21   0.25     0.04  -0.03  -0.04
  42   1    -0.13   0.03  -0.01    -0.06   0.22   0.25    -0.01   0.00   0.00
  43   1    -0.13   0.03  -0.01     0.01  -0.33   0.09     0.01  -0.00   0.00
  44   1    -0.13   0.03  -0.01    -0.08   0.18   0.20    -0.00   0.02   0.02
  45   1    -0.13   0.03  -0.01     0.04  -0.27   0.08     0.00  -0.03   0.01
  46   1     0.03  -0.05  -0.01    -0.02  -0.17   0.04    -0.00  -0.03   0.01
  47   1     0.02  -0.05  -0.01    -0.00   0.11   0.13    -0.00   0.02   0.02
  48   1    -0.03   0.09   0.02    -0.00  -0.00   0.01    -0.00  -0.00   0.00
  49   1     0.12   0.02   0.02    -0.04   0.02   0.03    -0.01   0.00   0.01
  50   1     0.12   0.02   0.02     0.04  -0.04   0.02     0.01  -0.01   0.00
                     31                     32                     33
                        a                      a                      a 
 Frequencies --   770.4821               536.1231               774.4861
 Red. masses --    99.0000                99.0000                99.0000
 Frc consts  --    99.0000                99.0000                99.0000
 IR Inten    --    99.0000                99.0000                99.0000
 Raman Activ --     0.0000                 0.0000                 0.0000
 Depolar     --     0.0000                 0.0000                 0.0000
 Atom AN      X      Y      Z        X      Y      Z        X      Y      Z
   1   6     0.00   0.00   0.00     0.05  -0.03   0.00    -0.00  -0.01  -0.01
   2   6     0.03   0.05   0.05     0.01  -0.07   0.05    -0.03  -0.06  -0.06
   3   6     0.04   0.07   0.08    -0.01  -0.03   0.03    -0.03  -0.06  -0.07
   4   6     0.03   0.07   0.08     0.01   0.14  -0.12    -0.01  -0.02  -0.03
   5   6     0.04   0.04   0.05    -0.20   0.14  -0.03     0.00   0.04   0.04
   6   6     0.00  -0.01   0.02    -0.15   0.06   0.07     0.04   0.08   0.07
   7   6    -0.02  -0.01  -0.01     0.39  -0.03  -0.05     0.06   0.04   0.06
   8   6    -0.01   0.03  -0.04     0.28  -0.27  -0.01     0.02  -0.03   0.03
   9   6     0.01   0.03  -0.07    -0.18   0.12   0.06    -0.02  -0.02  -0.03
  10   6     0.01   0.02  -0.06    -0.29   0.02  -0.03    -0.01   0.04  -0.07
  11   6     0.01   0.01  -0.02    -0.11  -0.18  -0.08     0.01   0.03  -0.09
  12   6    -0.00  -0.01   0.02     0.08   0.10   0.04     0.01   0.01  -0.05
  13   6    -0.01  -0.02   0.06     0.16   0.06   0.04    -0.00  -0.01   0.03
  14   6    -0.01  -0.02   0.07     0.09  -0.08  -0.01    -0.01  -0.03   0.08
  15   6    -0.01  -0.01   0.05    -0.04   0.02   0.00    -0.01  -0.02   0.08
  16   6    -0.00  -0.00   0.00    -0.08   0.01  -0.01    -0.00  -0.00   0.01
  17   1     0.06  -0.04  -0.04     0.01  -0.00  -0.00    -0.07   0.05   0.05
  18   1    -0.08  -0.01  -0.01     0.01  -0.00  -0.00     0.10   0.01   0.01
  19   1    -0.01  -0.01  -0.02     0.03  -0.01  -0.00     0.01   0.02   0.02
  20   1     0.07   0.02  -0.22     0.01  -0.03   0.02    -0.08  -0.01   0.22
  21   1    -0.15  -0.17   0.05     0.01  -0.03   0.02     0.16   0.16  -0.05
  22   1     0.14  -0.02  -0.29     0.01  -0.02   0.01    -0.09  -0.01   0.22
  23   1    -0.25  -0.19   0.05     0.01  -0.02   0.01     0.17   0.17  -0.05
  24   1    -0.24  -0.18   0.04    -0.00   0.04  -0.04     0.11   0.02   0.00
  25   1     0.14  -0.02  -0.27    -0.00   0.04  -0.04    -0.07   0.04   0.06
  26   1    -0.12  -0.16   0.04    -0.09   0.07  -0.02    -0.13  -0.04   0.00
  27   1     0.06   0.02  -0.19    -0.08   0.07  -0.03     0.08  -0.03  -0.09
  28   1    -0.06  -0.03   0.00    -0.06   0.05   0.01    -0.18  -0.16   0.04
  29   1     0.05  -0.03  -0.04    -0.08   0.05   0.00     0.09   0.02  -0.23
  30   1    -0.01  -0.00   0.01     0.06   0.01   0.10     0.06   0.03  -0.18
  31   1     0.02  -0.00  -0.00     0.24   0.02  -0.00    -0.10  -0.14   0.04
  32   1    -0.02  -0.11   0.02     0.15  -0.18   0.04    -0.02   0.02  -0.00
  33   1     0.00   0.07   0.09     0.06  -0.01   0.10     0.00  -0.02  -0.02
  34   1    -0.03   0.11   0.14    -0.10   0.03   0.01    -0.07   0.02   0.04
  35   1     0.02  -0.17   0.04    -0.09   0.02   0.01     0.02  -0.07   0.01
  36   1     0.03  -0.16   0.04    -0.14   0.01  -0.02    -0.02  -0.19   0.04
  37   1    -0.04   0.10   0.12    -0.13  -0.01  -0.03    -0.02   0.13   0.15
  38   1     0.02   0.05   0.06    -0.05  -0.05  -0.02    -0.03   0.14   0.17
  39   1    -0.03  -0.07   0.01    -0.04  -0.05  -0.03     0.00  -0.22   0.05
  40   1     0.03   0.06  -0.01     0.05   0.03   0.02     0.06  -0.11   0.04
  41   1    -0.02  -0.04  -0.05     0.05   0.03   0.02    -0.06   0.07   0.08
  42   1     0.05  -0.10  -0.12     0.08   0.02   0.02     0.07  -0.04  -0.05
  43   1    -0.03   0.15  -0.05     0.08   0.02   0.02    -0.05   0.07  -0.03
  44   1     0.04  -0.12  -0.14     0.03  -0.02  -0.00     0.02  -0.14  -0.16
  45   1    -0.01   0.18  -0.05     0.03  -0.02  -0.00     0.01   0.20  -0.05
  46   1     0.01   0.14  -0.04    -0.03   0.00  -0.00     0.01   0.19  -0.05
  47   1     0.01  -0.09  -0.11    -0.02   0.00  -0.00     0.02  -0.13  -0.15
  48   1     0.00   0.00  -0.01    -0.01  -0.02  -0.01     0.00   0.01  -0.03
  49   1     0.04  -0.02  -0.03    -0.04  -0.00  -0.01     0.07  -0.03  -0.04
  50   1    -0.03   0.04  -0.02    -0.04  -0.00  -0.01    -0.06   0.06  -0.03
                     34                     35                     36
                        a                      a                      a 
 Frequencies --   847.8475               799.0016               781.9713
 Red. masses --    99.0000                99.0000                99.0000
 Frc consts  --    99.0000                99.0000                99.0000
 IR Inten    --    99.0000                99.0000                99.0000
 Raman Activ --     0.0000                 0.0000                 0.0000
 Depolar     --     0.0000                 0.0000                 0.0000
 Atom AN      X      Y      Z        X      Y      Z        X      Y      Z
   1   6     0.01   0.04   0.03    -0.01  -0.02  -0.02    -0.01  -0.01  -0.01
   2   6     0.03   0.06   0.06    -0.05  -0.09  -0.11    -0.02  -0.05  -0.06
   3   6    -0.04  -0.06  -0.06    -0.01  -0.02  -0.02    -0.03  -0.04  -0.04
   4   6    -0.02  -0.06  -0.05     0.04   0.08   0.11     0.01   0.01   0.02
   5   6     0.08   0.06   0.07     0.06   0.06   0.07     0.05   0.05   0.05
   6   6     0.00  -0.02   0.09    -0.03  -0.08  -0.04     0.02   0.01   0.08
   7   6    -0.09  -0.05  -0.10    -0.10  -0.08  -0.10    -0.01   0.01   0.00
   8   6    -0.04   0.08  -0.15    -0.03   0.05  -0.08    -0.02   0.06  -0.09
   9   6     0.02   0.04   0.06     0.04   0.05   0.03     0.01   0.04  -0.12
  10   6     0.01  -0.07   0.13     0.02  -0.06   0.08     0.01   0.01  -0.04
  11   6     0.02   0.03  -0.06    -0.00  -0.01   0.05    -0.01  -0.02   0.08
  12   6     0.01   0.05  -0.12     0.00   0.03  -0.06    -0.01  -0.04   0.11
  13   6    -0.02  -0.04   0.08     0.01   0.02  -0.08    -0.00  -0.01   0.03
  14   6    -0.02  -0.03   0.11    -0.00  -0.01   0.02     0.01   0.03  -0.08
  15   6     0.02   0.03  -0.10    -0.01  -0.03   0.09     0.02   0.03  -0.11
  16   6     0.01   0.02  -0.06    -0.00  -0.01   0.02     0.00   0.00  -0.02
  17   1     0.12  -0.09  -0.06    -0.13   0.09   0.08    -0.06   0.04   0.04
  18   1    -0.15   0.01  -0.02     0.17  -0.01   0.02     0.09   0.00   0.01
  19   1    -0.03  -0.04  -0.04     0.02   0.04   0.05     0.01   0.02   0.02
  20   1     0.10  -0.05  -0.09    -0.13   0.01   0.24    -0.06  -0.00   0.16
  21   1    -0.14  -0.03   0.01     0.22   0.16  -0.05     0.12   0.11  -0.03
  22   1    -0.11   0.04   0.09     0.05  -0.07   0.08    -0.03  -0.02   0.12
  23   1     0.14   0.03  -0.01    -0.03   0.10  -0.04     0.06   0.10  -0.03
  24   1     0.13   0.01   0.00    -0.15  -0.18   0.06    -0.01  -0.06   0.02
  25   1    -0.10   0.05   0.06     0.07   0.03  -0.22    -0.01   0.04  -0.06
  26   1    -0.13  -0.05   0.01    -0.07  -0.17   0.05    -0.13  -0.10   0.02
  27   1     0.12  -0.03  -0.11     0.04   0.05  -0.18     0.09  -0.01  -0.15
  28   1    -0.11  -0.01   0.01     0.04   0.13  -0.04    -0.12  -0.10   0.03
  29   1     0.11  -0.10  -0.01     0.01  -0.09   0.16     0.09  -0.03  -0.12
  30   1    -0.08   0.00   0.12    -0.09  -0.03   0.22     0.01   0.00  -0.05
  31   1     0.14   0.05  -0.02     0.15   0.16  -0.05    -0.01  -0.06   0.02
  32   1     0.05  -0.17   0.02     0.04  -0.09   0.02    -0.04  -0.20   0.02
  33   1    -0.05   0.13   0.14    -0.01   0.07   0.08     0.00   0.13   0.16
  34   1     0.16  -0.01  -0.01     0.10   0.01   0.00    -0.02   0.17   0.20
  35   1    -0.10   0.06  -0.02    -0.03   0.03  -0.01    -0.01  -0.26   0.05
  36   1    -0.05   0.17  -0.04     0.01   0.15  -0.03     0.08  -0.08   0.03
  37   1     0.09  -0.13  -0.12     0.03  -0.11  -0.12    -0.09   0.04   0.05
  38   1    -0.12   0.05   0.04    -0.04  -0.06  -0.07     0.09  -0.10  -0.11
  39   1     0.11  -0.07   0.03     0.05   0.09  -0.01    -0.06   0.15  -0.04
  40   1     0.07  -0.16   0.04    -0.04  -0.11   0.01    -0.03   0.23  -0.06
  41   1    -0.10   0.11   0.10     0.02   0.08   0.09     0.06  -0.15  -0.17
  42   1     0.12  -0.07  -0.06    -0.00   0.10   0.11    -0.06  -0.05  -0.06
  43   1    -0.11   0.10  -0.04    -0.02  -0.15   0.03     0.07   0.07  -0.00
  44   1     0.11  -0.09  -0.09    -0.06  -0.03  -0.03     0.02   0.13   0.14
  45   1    -0.09   0.13  -0.04     0.06   0.04   0.00    -0.04  -0.18   0.04
  46   1     0.09  -0.13   0.04    -0.02   0.16  -0.04    -0.00  -0.25   0.06
  47   1    -0.11   0.10   0.09     0.04  -0.11  -0.12    -0.03   0.17   0.19
  48   1    -0.01  -0.02   0.07     0.01   0.01  -0.04    -0.01  -0.01   0.04
  49   1    -0.16   0.06   0.07     0.09  -0.04  -0.05    -0.10   0.05   0.06
  50   1     0.14  -0.10   0.06    -0.08   0.07  -0.04     0.09  -0.08   0.05
                     37                     38                     39
                        a                      a                      a 
 Frequencies --   810.8304               863.3085               906.7248
 Red. masses --    99.0000                99.0000                99.0000
 Frc consts  --    99.0000                99.0000                99.0000
 IR Inten    --    99.0000                99.0000                99.0000
 Raman Activ --     0.0000                 0.0000                 0.0000
 Depolar     --     0.0000                 0.0000                 0.0000
 Atom AN      X      Y      Z        X      Y      Z        X      Y      Z
   1   6    -0.01  -0.02  -0.02    -0.02  -0.04  -0.05    -0.02  -0.01  -0.04
   2   6    -0.03  -0.06  -0.06    -0.03  -0.06  -0.08     0.00   0.01  -0.03
   3   6     0.02   0.01   0.00     0.04   0.10   0.12     0.00   0.04   0.09
   4   6     0.03   0.06   0.07     0.02   0.04   0.03     0.00  -0.04  -0.04
   5   6    -0.02   0.02   0.02    -0.04  -0.11  -0.12     0.04  -0.04  -0.04
   6   6    -0.02  -0.02  -0.11    -0.00  -0.04   0.05    -0.01  -0.04   0.15
   7   6    -0.03  -0.05  -0.04     0.12   0.11   0.10     0.00   0.03  -0.07
   8   6     0.02  -0.07   0.11    -0.00   0.09  -0.08    -0.06   0.11  -0.17
   9   6     0.01  -0.01   0.12    -0.04  -0.06  -0.08    -0.03  -0.03   0.12
  10   6     0.02   0.02  -0.07    -0.04  -0.02   0.11     0.01  -0.04   0.06
  11   6     0.01   0.04  -0.13    -0.00   0.00   0.01     0.04   0.08  -0.17
  12   6    -0.01  -0.01   0.03     0.03   0.03  -0.12    -0.01  -0.03   0.08
  13   6    -0.02  -0.05   0.14    -0.00  -0.01   0.04    -0.02  -0.04   0.10
  14   6    -0.00  -0.01   0.02    -0.01  -0.03   0.11     0.02   0.06  -0.17
  15   6     0.02   0.04  -0.13     0.01   0.02  -0.07    -0.01  -0.01   0.04
  16   6     0.01   0.01  -0.04     0.01   0.02  -0.05    -0.01  -0.03   0.10
  17   1    -0.09   0.07   0.05    -0.15   0.11   0.08    -0.07   0.04   0.04
  18   1     0.12  -0.00   0.02     0.20  -0.02   0.03     0.11  -0.03   0.02
  19   1     0.02   0.03   0.03     0.02   0.05   0.06    -0.02   0.03   0.04
  20   1    -0.08   0.02   0.13    -0.13   0.08   0.08    -0.05   0.05  -0.01
  21   1     0.13   0.08  -0.02     0.17  -0.00   0.00     0.08  -0.04   0.02
  22   1     0.06  -0.05   0.01     0.13  -0.04  -0.14     0.02   0.01  -0.08
  23   1    -0.06   0.04  -0.02    -0.19  -0.07   0.03    -0.06  -0.07   0.04
  24   1    -0.11  -0.10   0.03    -0.14   0.06  -0.03    -0.00   0.08  -0.04
  25   1     0.07   0.00  -0.14     0.11  -0.09  -0.01     0.01  -0.04   0.06
  26   1     0.02  -0.07   0.03     0.17   0.12  -0.04    -0.00   0.08  -0.04
  27   1    -0.04   0.05  -0.05    -0.11   0.00   0.18     0.03  -0.05   0.06
  28   1     0.09   0.14  -0.06     0.09  -0.12   0.06    -0.05  -0.09   0.05
  29   1    -0.06  -0.01   0.14    -0.09   0.08  -0.05     0.05  -0.04  -0.04
  30   1    -0.04  -0.01   0.12     0.12   0.01  -0.19    -0.02   0.02   0.01
  31   1     0.04   0.13  -0.04    -0.11  -0.16   0.06     0.10  -0.05   0.01
  32   1     0.05   0.20  -0.02    -0.08  -0.12   0.00     0.06  -0.16   0.02
  33   1     0.01  -0.14  -0.16    -0.03   0.10   0.10    -0.11   0.13   0.12
  34   1    -0.04  -0.11  -0.14     0.05   0.03   0.05     0.17  -0.07  -0.06
  35   1     0.07   0.18  -0.01    -0.11  -0.09  -0.02    -0.13   0.12  -0.03
  36   1    -0.08  -0.13   0.01     0.01   0.15  -0.01    -0.16   0.05  -0.04
  37   1     0.06   0.09   0.10     0.00  -0.10  -0.10     0.18  -0.04  -0.02
  38   1    -0.00   0.14   0.16    -0.09  -0.02  -0.02    -0.02   0.14   0.14
  39   1    -0.03  -0.21   0.03     0.10   0.02   0.02     0.01  -0.19   0.02
  40   1     0.10   0.06   0.01     0.03  -0.15   0.03     0.14   0.11   0.01
  41   1    -0.09  -0.05  -0.06    -0.03   0.10   0.10    -0.14  -0.08  -0.09
  42   1     0.04  -0.16  -0.16     0.10  -0.02  -0.01    -0.12  -0.10  -0.10
  43   1    -0.01   0.22  -0.05    -0.10   0.03  -0.02     0.13   0.13   0.01
  44   1     0.11  -0.01   0.00     0.07  -0.09  -0.08     0.00   0.15   0.13
  45   1    -0.10   0.01  -0.02    -0.05   0.13  -0.03    -0.02  -0.19   0.02
  46   1     0.05  -0.22   0.06     0.09  -0.08   0.03    -0.17   0.03  -0.04
  47   1    -0.08   0.15   0.15    -0.10   0.06   0.05     0.18  -0.02  -0.00
  48   1    -0.01  -0.02   0.06    -0.01  -0.02   0.06     0.01   0.03  -0.09
  49   1    -0.14   0.06   0.07    -0.13   0.05   0.05     0.20  -0.08  -0.07
  50   1     0.12  -0.10   0.06     0.11  -0.08   0.05    -0.17   0.12  -0.06
                     40                     41                     42
                        a                      a                      a 
 Frequencies --  1504.9729              1505.0289              1508.0445
 Red. masses --    99.0000                99.0000                99.0000
 Frc consts  --    99.0000                99.0000                99.0000
 IR Inten    --    99.0000                99.0000                99.0000
 Raman Activ --     0.0000                 0.0000                 0.0000
 Depolar     --     0.0000                 0.0000                 0.0000
 Atom AN      X      Y      Z        X      Y      Z        X      Y      Z
   1   6     0.00   0.00   0.00     0.07   0.14   0.15     0.05   0.13  -0.14
   2   6    -0.00  -0.00   0.00     0.02   0.03   0.03     0.04   0.07  -0.08
   3   6     0.00   0.00  -0.00    -0.01  -0.00   0.00     0.05   0.00  -0.03
   4   6    -0.00  -0.00   0.00    -0.00  -0.00  -0.00    -0.01   0.00   0.00
   5   6     0.00   0.00  -0.00    -0.00  -0.00   0.00     0.01   0.01  -0.01
   6   6    -0.00  -0.00   0.00     0.00  -0.00  -0.00    -0.01  -0.00   0.01
   7   6     0.00   0.00  -0.00    -0.00  -0.00   0.00     0.00   0.00  -0.00
   8   6    -0.00  -0.00  -0.00     0.00  -0.00  -0.00    -0.00  -0.00  -0.00
   9   6    -0.00   0.01   0.00    -0.00   0.00   0.00    -0.00   0.01   0.00
  10   6     0.00  -0.00  -0.00     0.00  -0.00  -0.00     0.00  -0.00   0.00
  11   6    -0.00   0.00   0.00    -0.00   0.00   0.00    -0.00   0.00   0.00
  12   6    -0.00   0.00   0.00     0.00  -0.00  -0.00    -0.00   0.00   0.00
  13   6    -0.00   0.00   0.00    -0.00   0.00   0.00     0.00   0.00   0.00
  14   6    -0.00   0.00   0.00     0.00  -0.00  -0.00    -0.00   0.01   0.00
  15   6     0.01   0.01  -0.04    -0.00   0.00   0.00     0.01   0.02   0.01
  16   6     0.03   0.06  -0.20     0.00  -0.00   0.01     0.01   0.03   0.01
  17   1    -0.01   0.01  -0.01    -0.21   0.30  -0.28    -0.13  -0.04   0.59
  18   1     0.00  -0.01   0.00     0.15  -0.41   0.18    -0.36  -0.47   0.10
  19   1    -0.01  -0.01  -0.01    -0.23  -0.45  -0.50     0.29  -0.02  -0.11
  20   1     0.00  -0.00  -0.01     0.02  -0.01   0.00    -0.03  -0.00   0.14
  21   1     0.01   0.01  -0.00    -0.03  -0.00   0.01    -0.08  -0.11   0.02
  22   1    -0.00   0.00   0.01     0.02  -0.01  -0.01    -0.06   0.02   0.13
  23   1    -0.01  -0.00   0.00     0.00   0.03  -0.01    -0.12  -0.09   0.01
  24   1     0.01   0.01  -0.00    -0.00  -0.01   0.00     0.03   0.02  -0.00
  25   1     0.01  -0.00  -0.02    -0.01   0.00   0.01     0.02  -0.01  -0.03
  26   1    -0.01  -0.01   0.00     0.01   0.01  -0.00    -0.04  -0.04   0.00
  27   1    -0.00   0.00   0.01     0.00  -0.00  -0.01    -0.02   0.00   0.05
  28   1     0.01   0.01  -0.00    -0.00  -0.00   0.00     0.02   0.02  -0.00
  29   1     0.01  -0.00  -0.01    -0.00   0.00   0.00     0.01  -0.00  -0.03
  30   1    -0.00  -0.00   0.00     0.00  -0.00  -0.00    -0.01   0.00   0.02
  31   1    -0.00  -0.00   0.00     0.00   0.00  -0.00    -0.01  -0.01   0.00
  32   1     0.00   0.00  -0.00    -0.00   0.00  -0.00     0.00   0.00  -0.00
  33   1     0.00   0.00   0.00    -0.00   0.00   0.00     0.00   0.00   0.00
  34   1     0.00  -0.01  -0.01     0.00  -0.00  -0.00     0.00  -0.01  -0.02
  35   1     0.00  -0.01   0.00     0.00  -0.00   0.00     0.00  -0.02   0.01
  36   1    -0.00   0.00  -0.00    -0.00   0.01  -0.00    -0.00   0.00  -0.00
  37   1    -0.00   0.00   0.00    -0.00   0.01   0.01    -0.00   0.00   0.00
  38   1     0.00  -0.00  -0.01     0.00  -0.01  -0.01     0.00  -0.00  -0.00
  39   1     0.00  -0.01   0.00     0.00  -0.01   0.00     0.00  -0.01   0.00
  40   1    -0.00  -0.00   0.00    -0.00   0.01  -0.00    -0.00  -0.00   0.00
  41   1     0.00  -0.00  -0.00    -0.00   0.01   0.01     0.00  -0.00  -0.00
  42   1     0.00  -0.00  -0.00     0.00  -0.01  -0.01    -0.00   0.00   0.00
  43   1    -0.00  -0.00   0.00     0.00  -0.01   0.00    -0.00   0.00  -0.00
  44   1    -0.02  -0.01  -0.01    -0.00   0.01   0.01     0.01  -0.01  -0.02
  45   1     0.02  -0.01   0.01    -0.00   0.01  -0.00     0.00  -0.02   0.01
  46   1     0.02  -0.02  -0.00    -0.00  -0.01   0.00    -0.00  -0.03   0.01
  47   1    -0.02   0.02   0.00     0.00  -0.01  -0.01     0.00  -0.02  -0.02
  48   1    -0.10  -0.20   0.68     0.00   0.01  -0.02    -0.03   0.04   0.00
  49   1     0.40   0.16   0.18    -0.01  -0.01  -0.01    -0.00  -0.06  -0.08
  50   1    -0.42  -0.21  -0.04     0.01   0.00   0.00    -0.02  -0.10   0.03
                     43                     44                     45
                        a                      a                      a 
 Frequencies --   929.2671               961.6331              1508.1274
 Red. masses --    99.0000                99.0000                99.0000
 Frc consts  --    99.0000                99.0000                99.0000
 IR Inten    --    99.0000                99.0000                99.0000
 Raman Activ --     0.0000                 0.0000                 0.0000
 Depolar     --     0.0000                 0.0000                 0.0000
 Atom AN      X      Y      Z        X      Y      Z        X      Y      Z
   1   6    -0.03  -0.10  -0.07     0.05  -0.06   0.04    -0.01  -0.02   0.02
   2   6    -0.01  -0.02   0.02    -0.04  -0.02   0.03    -0.01  -0.01   0.01
   3   6     0.08   0.13   0.09    -0.03   0.07  -0.05    -0.01  -0.00   0.01
   4   6    -0.08  -0.13  -0.11     0.00   0.04  -0.02     0.00   0.00  -0.00
   5   6    -0.01   0.03   0.01     0.07  -0.05   0.00    -0.00  -0.00   0.00
   6   6     0.06   0.16   0.05    -0.03  -0.17   0.16     0.01   0.00  -0.01
   7   6    -0.21  -0.13  -0.08     0.15   0.08  -0.13    -0.00  -0.00   0.00
   8   6     0.01  -0.16  -0.01    -0.11   0.22  -0.07     0.00   0.00   0.00
   9   6     0.08   0.16   0.07    -0.10  -0.14   0.11     0.00  -0.01  -0.00
  10   6     0.07  -0.01  -0.06    -0.02   0.02  -0.11    -0.00   0.01   0.00
  11   6     0.01  -0.05   0.04     0.02   0.06  -0.01     0.00  -0.02  -0.00
  12   6    -0.03   0.03   0.01     0.01  -0.07   0.13    -0.00   0.02   0.01
  13   6    -0.02   0.01  -0.06     0.02   0.06  -0.15     0.01  -0.01  -0.00
  14   6    -0.02  -0.05   0.04    -0.03  -0.05   0.07    -0.03   0.05   0.01
  15   6     0.00   0.03   0.01    -0.01   0.00   0.06     0.03   0.10   0.04
  16   6     0.04   0.02  -0.03     0.04   0.04  -0.09     0.08   0.17   0.07
  17   1    -0.20   0.14   0.07    -0.01   0.02  -0.02     0.02   0.01  -0.10
  18   1     0.22  -0.01   0.02    -0.03   0.04  -0.02     0.06   0.08  -0.02
  19   1     0.08   0.05   0.06     0.11  -0.03  -0.03    -0.05   0.00   0.02
  20   1    -0.15   0.15  -0.06    -0.02   0.00   0.01     0.00   0.00  -0.02
  21   1     0.13  -0.14   0.07    -0.03   0.02  -0.00     0.01   0.02  -0.00
  22   1     0.01   0.10  -0.20    -0.02   0.02  -0.01     0.01  -0.00  -0.03
  23   1    -0.05  -0.17   0.07    -0.02   0.04  -0.02     0.02   0.02  -0.00
  24   1     0.08   0.16  -0.07    -0.02   0.02  -0.01    -0.01  -0.01   0.00
  25   1    -0.03  -0.09   0.19    -0.00   0.01  -0.02    -0.01   0.00   0.01
  26   1    -0.14   0.12  -0.06     0.02  -0.00  -0.00     0.01   0.01  -0.00
  27   1     0.15  -0.14   0.05    -0.00   0.00   0.01     0.01  -0.00  -0.01
  28   1    -0.20   0.01  -0.01     0.01  -0.06   0.05    -0.02  -0.01   0.00
  29   1     0.17  -0.06  -0.10     0.00  -0.05   0.05    -0.01   0.00   0.02
  30   1    -0.20   0.06   0.14     0.08  -0.03  -0.01     0.00   0.00  -0.01
  31   1     0.13   0.07  -0.02     0.09  -0.04  -0.01     0.00   0.00  -0.00
  32   1     0.10   0.02  -0.00     0.08  -0.04   0.03    -0.00  -0.01   0.00
  33   1     0.05  -0.06  -0.04    -0.22   0.10   0.06     0.00  -0.01  -0.01
  34   1    -0.00   0.04   0.01     0.04  -0.13  -0.11    -0.01   0.02   0.02
  35   1     0.10   0.05   0.03    -0.04   0.13  -0.02    -0.00   0.03  -0.01
  36   1     0.03  -0.06   0.01    -0.14  -0.12  -0.02     0.00  -0.04   0.01
  37   1    -0.03   0.03   0.04     0.15   0.08   0.09     0.01  -0.02  -0.03
  38   1     0.04  -0.04  -0.03     0.21   0.05   0.06    -0.01   0.03   0.04
  39   1    -0.05   0.04  -0.02    -0.18  -0.03  -0.02    -0.00   0.04  -0.01
  40   1    -0.08   0.01  -0.01    -0.11   0.11  -0.03     0.00  -0.06   0.02
  41   1     0.06   0.01   0.01     0.14  -0.09  -0.07     0.01  -0.04  -0.05
  42   1     0.02   0.04   0.04    -0.08   0.11   0.09    -0.01   0.03   0.04
  43   1    -0.03  -0.06   0.00     0.06  -0.14   0.03    -0.01   0.04  -0.02
  44   1    -0.03  -0.05  -0.05    -0.18  -0.08  -0.08     0.04  -0.09  -0.12
  45   1     0.03   0.05  -0.00     0.16   0.09   0.02     0.01  -0.14   0.05
  46   1     0.06   0.01   0.01     0.17   0.07   0.03    -0.03  -0.13   0.05
  47   1    -0.08  -0.00  -0.01    -0.20  -0.05  -0.06    -0.00  -0.08  -0.12
  48   1     0.03  -0.04   0.03     0.03  -0.05   0.07    -0.20   0.23   0.03
  49   1    -0.08   0.02   0.02    -0.19   0.07   0.05    -0.01  -0.36  -0.48
  50   1     0.04  -0.05   0.02     0.13  -0.11   0.05    -0.10  -0.56   0.18
                     46                     47                     48
                        a                      a                      a 
 Frequencies --  1001.9439               982.2617              1202.6136
 Red. masses --    99.0000                99.0000                99.0000
 Frc consts  --    99.0000                99.0000                99.0000
 IR Inten    --    99.0000                99.0000                99.0000
 Raman Activ --     0.0000                 0.0000                 0.0000
 Depolar     --     0.0000                 0.0000                 0.0000
 Atom AN      X      Y      Z        X      Y      Z        X      Y      Z
   1   6    -0.05  -0.01  -0.06     0.01   0.08   0.07     0.02   0.04   0.06
   2   6     0.05   0.04   0.04    -0.00  -0.05  -0.07    -0.03  -0.06  -0.09
   3   6     0.05  -0.05  -0.01     0.04  -0.04  -0.01     0.02   0.06   0.08
   4   6    -0.05  -0.04   0.01     0.01   0.02   0.13    -0.03  -0.05  -0.08
   5   6    -0.05   0.10   0.04    -0.06  -0.05  -0.14     0.01   0.06   0.07
   6   6     0.02   0.08  -0.22     0.03   0.18  -0.02    -0.01  -0.02  -0.06
   7   6    -0.05  -0.04   0.20    -0.25  -0.03   0.09    -0.01   0.01   0.03
   8   6     0.13  -0.06  -0.01     0.05  -0.25  -0.16    -0.00  -0.00   0.01
   9   6     0.03  -0.01  -0.06     0.12   0.23   0.13     0.01   0.03  -0.07
  10   6    -0.02   0.01   0.12     0.11  -0.03   0.02    -0.01  -0.05   0.13
  11   6    -0.01   0.00  -0.13     0.02  -0.06  -0.07     0.03   0.07  -0.19
  12   6    -0.03  -0.03   0.09    -0.06   0.05   0.07    -0.03  -0.08   0.24
  13   6     0.01   0.03  -0.04    -0.01  -0.02  -0.06     0.04   0.09  -0.27
  14   6     0.01   0.00  -0.02     0.01   0.01   0.01    -0.04  -0.10   0.28
  15   6    -0.01  -0.03   0.08    -0.00  -0.01   0.03     0.04   0.10  -0.29
  16   6     0.01   0.03  -0.08    -0.01  -0.00  -0.05    -0.03  -0.06   0.19
  17   1    -0.08   0.05   0.04     0.13  -0.09  -0.05     0.05  -0.03  -0.03
  18   1     0.11  -0.03   0.01    -0.17   0.02  -0.01    -0.07   0.01  -0.00
  19   1    -0.03   0.04   0.04    -0.04  -0.04  -0.04    -0.00  -0.02  -0.02
  20   1    -0.04   0.08  -0.09     0.09  -0.13   0.11    -0.04  -0.01   0.05
  21   1     0.05  -0.12   0.06    -0.06   0.17  -0.08     0.05   0.03  -0.03
  22   1    -0.09   0.09  -0.03     0.14  -0.16   0.09     0.04  -0.00  -0.05
  23   1     0.14  -0.12   0.05    -0.11   0.15  -0.07    -0.05  -0.04   0.03
  24   1     0.12  -0.11   0.06    -0.17   0.02   0.00     0.07   0.01  -0.02
  25   1    -0.11   0.09  -0.01     0.14  -0.11  -0.03    -0.03  -0.01   0.05
  26   1     0.01  -0.11   0.05     0.11   0.08  -0.04    -0.02  -0.06   0.03
  27   1    -0.04   0.08  -0.09    -0.06  -0.02   0.11     0.03   0.01  -0.04
  28   1     0.08   0.08  -0.06     0.02  -0.13   0.05     0.07  -0.01   0.00
  29   1    -0.04   0.04   0.03    -0.02   0.11  -0.14    -0.03   0.01   0.02
  30   1     0.05  -0.05  -0.02    -0.22   0.15  -0.03     0.01   0.00  -0.01
  31   1    -0.17   0.02   0.02     0.05  -0.12   0.07     0.03  -0.06   0.03
  32   1    -0.17  -0.06  -0.03     0.06  -0.13  -0.02     0.08   0.02   0.01
  33   1     0.21   0.01   0.03     0.09  -0.02   0.03    -0.07  -0.01  -0.02
  34   1     0.13   0.04   0.05     0.11   0.05   0.03    -0.09   0.03   0.01
  35   1    -0.18  -0.08  -0.03    -0.04   0.08   0.01     0.07  -0.04   0.01
  36   1    -0.11   0.10  -0.02    -0.09  -0.00  -0.02     0.06   0.09   0.01
  37   1     0.10  -0.05  -0.04     0.08  -0.01   0.00    -0.07  -0.08  -0.07
  38   1    -0.05   0.07   0.06     0.02   0.01   0.02    -0.10   0.09   0.06
  39   1     0.03  -0.11   0.01    -0.07  -0.07  -0.02     0.07  -0.12   0.01
  40   1     0.12   0.10   0.01    -0.02   0.07  -0.00     0.02   0.16   0.00
  41   1    -0.11  -0.08  -0.08    -0.01  -0.02  -0.03    -0.03  -0.13  -0.10
  42   1    -0.20   0.01  -0.01    -0.06   0.02   0.01    -0.08   0.14   0.10
  43   1     0.20  -0.01   0.04     0.06  -0.04   0.01     0.04  -0.18   0.01
  44   1    -0.21  -0.01  -0.02    -0.07  -0.01  -0.02     0.03  -0.15  -0.11
  45   1     0.21  -0.00   0.04     0.10   0.02   0.02    -0.03   0.18  -0.01
  46   1     0.15   0.09   0.02     0.09   0.04   0.01     0.02  -0.18   0.01
  47   1    -0.14  -0.07  -0.07    -0.06  -0.03  -0.03    -0.04   0.15   0.10
  48   1    -0.01  -0.01   0.05    -0.03   0.02   0.03     0.01   0.03  -0.08
  49   1    -0.12   0.05   0.04    -0.04   0.03   0.03     0.17  -0.09  -0.05
  50   1     0.11  -0.07   0.03     0.07  -0.04   0.02    -0.15   0.12  -0.04
                     49                     50                     51
                        a                      a                      a 
 Frequencies --  1022.4141              1207.1242              1173.6885
 Red. masses --    99.0000                99.0000                99.0000
 Frc consts  --    99.0000                99.0000                99.0000
 IR Inten    --    99.0000                99.0000                99.0000
 Raman Activ --     0.0000                 0.0000                 0.0000
 Depolar     --     0.0000                 0.0000                 0.0000
 Atom AN      X      Y      Z        X      Y      Z        X      Y      Z
   1   6     0.04   0.04   0.04    -0.08  -0.15  -0.16     0.01   0.02  -0.06
   2   6    -0.05  -0.05  -0.05     0.12   0.23   0.24    -0.03  -0.02   0.10
   3   6    -0.01   0.05   0.04    -0.11  -0.20  -0.22     0.06  -0.00  -0.12
   4   6     0.01   0.02  -0.07     0.09   0.18   0.18    -0.03   0.01   0.14
   5   6    -0.03  -0.04   0.04    -0.08  -0.10  -0.12     0.07  -0.08  -0.16
   6   6     0.05   0.02   0.04     0.04   0.07   0.04    -0.01   0.01   0.27
   7   6     0.08  -0.08  -0.08    -0.02  -0.00   0.02     0.06  -0.09  -0.30
   8   6    -0.01   0.11   0.15     0.03  -0.01  -0.06    -0.06   0.08   0.30
   9   6    -0.04  -0.11  -0.14     0.02   0.02   0.05    -0.03  -0.09  -0.25
  10   6    -0.10  -0.02   0.05     0.04  -0.01  -0.02    -0.08   0.04   0.16
  11   6    -0.02   0.08  -0.02     0.02   0.03  -0.01     0.00  -0.05  -0.12
  12   6     0.04  -0.07  -0.01     0.02  -0.04   0.05    -0.05   0.05   0.07
  13   6     0.02   0.02   0.03     0.02   0.05  -0.08     0.00  -0.05  -0.06
  14   6     0.01   0.02  -0.05    -0.00  -0.05   0.10    -0.01   0.05   0.04
  15   6    -0.01  -0.03   0.06     0.02   0.06  -0.11    -0.00  -0.05  -0.03
  16   6     0.01   0.03  -0.05    -0.01  -0.04   0.07     0.01   0.03   0.02
  17   1     0.09  -0.06  -0.03    -0.19   0.11   0.08     0.01  -0.01   0.03
  18   1    -0.09   0.01  -0.01     0.23  -0.03   0.00     0.06  -0.04   0.01
  19   1    -0.02  -0.02  -0.02     0.04   0.06   0.07    -0.05   0.02   0.02
  20   1     0.04  -0.09   0.10     0.14   0.01  -0.16     0.00  -0.01  -0.01
  21   1    -0.03   0.12  -0.05    -0.18  -0.09   0.07    -0.02  -0.05   0.04
  22   1     0.15  -0.13   0.02    -0.08  -0.06   0.17    -0.04   0.04   0.00
  23   1    -0.16   0.10  -0.04     0.13   0.12  -0.08     0.06   0.03  -0.03
  24   1    -0.12   0.18  -0.09    -0.17  -0.04   0.03    -0.06  -0.04   0.04
  25   1     0.14  -0.14   0.08     0.16  -0.04  -0.10    -0.04   0.06  -0.07
[...]
  29   1    -0.33  -0.37  -0.12    -0.04  -0.04  -0.01     0.02   0.02   0.01
  30   1    -0.04  -0.04  -0.01     0.14   0.16   0.06    -0.17  -0.18  -0.06
  31   1     0.01  -0.02  -0.08     0.04  -0.11  -0.33    -0.01   0.05   0.14
  32   1     0.00  -0.01  -0.01     0.02  -0.03  -0.12     0.05  -0.06  -0.28
  33   1    -0.00   0.06  -0.04    -0.00   0.05  -0.03     0.00  -0.17   0.12
  34   1     0.01   0.25  -0.18    -0.00  -0.08   0.06     0.00   0.02  -0.01
  35   1    -0.01   0.01   0.07     0.02  -0.03  -0.11     0.02  -0.02  -0.09
  36   1    -0.01   0.00   0.03    -0.03   0.03   0.14    -0.06   0.07   0.29
  37   1     0.00   0.11  -0.08     0.00   0.13  -0.10     0.01   0.29  -0.22
  38   1     0.00   0.07  -0.05     0.00   0.13  -0.11    -0.00  -0.07   0.05
  39   1    -0.00  -0.00   0.00    -0.04   0.05   0.18     0.02  -0.03  -0.10
  40   1     0.01  -0.02  -0.05     0.01  -0.02  -0.07    -0.03   0.04   0.13
  41   1    -0.00   0.00   0.00    -0.00  -0.09   0.07     0.00   0.08  -0.07
  42   1    -0.00  -0.05   0.04    -0.00  -0.04   0.03    -0.01  -0.31   0.25
  43   1     0.02  -0.03  -0.10    -0.00   0.00  -0.00     0.07  -0.09  -0.32
  44   1    -0.00  -0.07   0.06    -0.01  -0.24   0.20     0.00   0.02  -0.02
  45   1     0.02  -0.03  -0.12     0.05  -0.07  -0.24    -0.02   0.03   0.09
  46   1     0.03  -0.04  -0.13    -0.05   0.07   0.23    -0.04   0.06   0.20
  47   1    -0.00  -0.09   0.08     0.01   0.16  -0.14     0.00   0.11  -0.10
  48   1     0.01   0.01   0.01    -0.01  -0.01  -0.00    -0.01  -0.01  -0.00
  49   1    -0.00   0.01  -0.01     0.00   0.00  -0.00     0.00  -0.01   0.01
  50   1    -0.01   0.01   0.02     0.00  -0.00  -0.01     0.01  -0.01  -0.02
                    133                    134                    135
                        a                      a                      a 
 Frequencies --  2975.8334              2976.2817              3031.7620
 Red. masses --    99.0000                99.0000                99.0000
 Frc consts  --    99.0000                99.0000                99.0000
 IR Inten    --    99.0000                99.0000                99.0000
 Raman Activ --     0.0000                 0.0000                 0.0000
 Depolar     --     0.0000                 0.0000                 0.0000
 Atom AN      X      Y      Z        X      Y      Z        X      Y      Z
   1   6    -0.00  -0.01   0.00    -0.01  -0.01  -0.01    -0.00  -0.01   0.01
   2   6     0.05   0.04  -0.02    -0.01   0.03   0.10    -0.00  -0.00   0.00
   3   6     0.00   0.02   0.03     0.08   0.09   0.04    -0.00  -0.00   0.00
   4   6    -0.02   0.01   0.05     0.04   0.06   0.07    -0.00  -0.00   0.00
   5   6    -0.01   0.01   0.03     0.06   0.07   0.02    -0.00  -0.00  -0.00
   6   6    -0.01  -0.00   0.02    -0.03  -0.00   0.05    -0.00  -0.00  -0.00
   7   6     0.04   0.02  -0.05    -0.01  -0.01   0.01    -0.00  -0.00  -0.00
   8   6    -0.00   0.05  -0.02     0.01  -0.05  -0.04     0.00  -0.00  -0.00
   9   6     0.01   0.01  -0.04     0.00   0.03  -0.03     0.00  -0.00  -0.00
  10   6     0.00   0.01  -0.01     0.01  -0.05  -0.03     0.00  -0.00  -0.00
  11   6     0.01  -0.09  -0.02    -0.00   0.02   0.01     0.00  -0.00  -0.00
  12   6    -0.01   0.03   0.04    -0.01   0.01   0.03     0.00  -0.00  -0.00
  13   6    -0.00  -0.04   0.04    -0.01   0.02   0.04     0.00  -0.00  -0.00
  14   6    -0.02   0.07   0.08    -0.01  -0.01   0.03     0.00  -0.01  -0.00
  15   6     0.00  -0.05   0.03     0.00  -0.05   0.01     0.00  -0.03  -0.01
  16   6     0.00  -0.00  -0.01     0.00   0.01  -0.00    -0.10  -0.25  -0.10
  17   1     0.02   0.02   0.01     0.02   0.03   0.01     0.02   0.02   0.01
  18   1     0.00  -0.00  -0.00    -0.01   0.01   0.04     0.00  -0.01  -0.02
  19   1    -0.00   0.01  -0.01     0.00  -0.01   0.00    -0.01   0.03  -0.02
  20   1    -0.17  -0.18  -0.06     0.01   0.02   0.02     0.00   0.00   0.00
  21   1    -0.01   0.05   0.13     0.05  -0.12  -0.37     0.00  -0.00  -0.00
  22   1    -0.02  -0.02  -0.00    -0.30  -0.32  -0.10     0.00   0.00   0.00
  23   1     0.02  -0.04  -0.12     0.01   0.00  -0.02     0.00  -0.00  -0.00
  24   1     0.03  -0.06  -0.19     0.03  -0.06  -0.20     0.00  -0.00  -0.00
  25   1     0.04   0.04   0.02    -0.15  -0.16  -0.04     0.00   0.00   0.00
  26   1     0.02  -0.04  -0.12     0.01   0.01   0.01    -0.00  -0.00  -0.00
  27   1     0.01   0.02   0.01    -0.22  -0.25  -0.08     0.00   0.00   0.00
  28   1     0.01  -0.02  -0.08     0.03  -0.07  -0.22    -0.00  -0.00   0.00
  29   1     0.04   0.04   0.02     0.08   0.09   0.04     0.00   0.00   0.00
  30   1    -0.14  -0.15  -0.05     0.02   0.02   0.01     0.00   0.00   0.00
  31   1    -0.03   0.08   0.23     0.00  -0.01  -0.03    -0.00   0.00   0.00
  32   1     0.01  -0.00  -0.05    -0.04   0.04   0.23    -0.00   0.00   0.00
  33   1     0.01  -0.16   0.11    -0.00   0.14  -0.10     0.00   0.00  -0.00
  34   1    -0.00  -0.07   0.05    -0.00  -0.12   0.08     0.00   0.00  -0.00
  35   1    -0.02   0.03   0.11    -0.00   0.01   0.01    -0.00   0.00   0.00
  36   1    -0.00   0.01   0.02    -0.04   0.05   0.21    -0.00   0.00   0.00
  37   1    -0.00  -0.04   0.03     0.00   0.14  -0.11     0.00   0.00  -0.00
  38   1     0.01   0.26  -0.20    -0.00  -0.04   0.04     0.00   0.00  -0.00
  39   1    -0.06   0.07   0.28     0.02  -0.02  -0.09    -0.00   0.00   0.00
  40   1     0.04  -0.06  -0.22     0.02  -0.03  -0.09    -0.00   0.00   0.01
  41   1    -0.00  -0.07   0.06    -0.00   0.01  -0.00     0.00   0.01  -0.01
  42   1     0.01   0.16  -0.13    -0.00  -0.03   0.03    -0.00   0.01  -0.01
  43   1    -0.00  -0.00   0.01     0.04  -0.05  -0.17    -0.00   0.00   0.01
  44   1    -0.01  -0.16   0.14     0.00   0.06  -0.04     0.00   0.04  -0.03
  45   1     0.09  -0.13  -0.41     0.02  -0.03  -0.07    -0.01   0.01   0.05
  46   1    -0.01   0.01   0.07    -0.01   0.02   0.07    -0.01   0.02   0.08
  47   1     0.01   0.20  -0.16     0.01   0.15  -0.12     0.00   0.06  -0.05
  48   1    -0.00  -0.00  -0.00    -0.01  -0.01  -0.00     0.48   0.42   0.20
  49   1     0.00  -0.01   0.01     0.00  -0.02   0.01    -0.01   0.34  -0.31
  50   1    -0.00   0.01   0.02     0.00   0.00   0.00    -0.12   0.12   0.45
                    136                    137                    138
                        a                      a                      a 
 Frequencies --  2977.9972              3031.6407              2978.6453
 Red. masses --    99.0000                99.0000                99.0000
 Frc consts  --    99.0000                99.0000                99.0000
 IR Inten    --    99.0000                99.0000                99.0000
 Raman Activ --     0.0000                 0.0000                 0.0000
 Depolar     --     0.0000                 0.0000                 0.0000
 Atom AN      X      Y      Z        X      Y      Z        X      Y      Z
   1   6    -0.00  -0.00  -0.01    -0.08  -0.19   0.20     0.00   0.01  -0.00
   2   6    -0.03   0.00   0.05    -0.02  -0.01   0.02    -0.05  -0.04   0.03
   3   6     0.03   0.03   0.01    -0.01  -0.00   0.01    -0.00  -0.01  -0.03
   4   6     0.01   0.02   0.03    -0.00  -0.00   0.00    -0.01  -0.02  -0.03
   5   6     0.05   0.04  -0.01    -0.00  -0.00   0.00     0.04   0.00  -0.07
   6   6    -0.02  -0.00   0.04    -0.00  -0.00   0.00    -0.02  -0.04  -0.03
   7   6     0.03   0.03   0.01    -0.00  -0.00   0.00     0.03   0.01  -0.04
   8   6    -0.01   0.07   0.05    -0.00  -0.00   0.00    -0.01   0.04   0.02
   9   6     0.00  -0.03   0.01    -0.00  -0.00   0.00    -0.01   0.03   0.03
  10   6    -0.00   0.04  -0.02    -0.00  -0.00   0.00    -0.01  -0.01   0.05
  11   6     0.02  -0.01  -0.08    -0.00  -0.00   0.00    -0.00  -0.06   0.06
  12   6     0.01   0.02  -0.09    -0.00   0.00   0.00    -0.00  -0.08   0.06
  13   6     0.02   0.01  -0.10    -0.00   0.00   0.00    -0.01  -0.04   0.07
  14   6     0.01   0.04  -0.09    -0.00   0.00   0.00    -0.01  -0.01   0.07
  15   6     0.01   0.04  -0.06    -0.00   0.00   0.00    -0.02   0.06   0.07
  16   6    -0.00  -0.01   0.01     0.01   0.01   0.01    -0.00  -0.01  -0.01
  17   1     0.01   0.01   0.00     0.31   0.31   0.13    -0.02  -0.02  -0.01
  18   1    -0.00   0.01   0.02     0.05  -0.18  -0.42    -0.00   0.00   0.00
  19   1     0.00  -0.01   0.01    -0.09   0.53  -0.43     0.00  -0.02   0.01
  20   1     0.07   0.08   0.03     0.05   0.06   0.02     0.18   0.20   0.06
  21   1     0.03  -0.07  -0.22     0.01  -0.03  -0.07     0.02  -0.07  -0.19
  22   1    -0.12  -0.14  -0.04     0.03   0.04   0.01     0.01   0.01  -0.00
  23   1     0.00   0.01   0.03     0.00  -0.02  -0.05    -0.01   0.03   0.10
  24   1     0.02  -0.03  -0.09     0.00  -0.01  -0.01    -0.01   0.02   0.07
  25   1    -0.04  -0.04  -0.01     0.01   0.01   0.00     0.04   0.04   0.01
  26   1    -0.01   0.04   0.11     0.00  -0.00  -0.01    -0.04   0.10   0.29
  27   1    -0.17  -0.19  -0.07     0.01   0.01   0.00    -0.09  -0.11  -0.05
  28   1     0.02  -0.05  -0.16     0.00  -0.00  -0.00    -0.01   0.01   0.05
  29   1     0.06   0.07   0.03     0.00   0.00   0.00     0.10   0.12   0.04
  30   1    -0.12  -0.12  -0.04     0.00   0.00   0.00    -0.10  -0.11  -0.04
  31   1     0.00   0.01   0.02     0.00  -0.00  -0.00    -0.02   0.06   0.18
  32   1     0.05  -0.06  -0.33     0.00  -0.00  -0.00     0.03  -0.03  -0.16
  33   1     0.00  -0.20   0.14     0.00   0.00  -0.00     0.00  -0.12   0.08
  34   1     0.00   0.12  -0.08     0.00   0.00  -0.00    -0.00  -0.07   0.06
  35   1    -0.01   0.01   0.06     0.00  -0.00  -0.00     0.03  -0.04  -0.17
  36   1     0.01  -0.00  -0.03     0.00  -0.00  -0.00     0.02  -0.04  -0.12
  37   1    -0.00  -0.15   0.11    -0.00   0.00  -0.00     0.00   0.08  -0.05
  38   1     0.00  -0.03   0.01     0.00   0.00  -0.00     0.00   0.21  -0.15
  39   1    -0.06   0.08   0.27     0.00  -0.00  -0.00     0.01  -0.02  -0.04
  40   1    -0.04   0.07   0.22     0.00  -0.00  -0.00    -0.00  -0.01   0.02
  41   1    -0.00  -0.16   0.11    -0.00  -0.00   0.00     0.01   0.30  -0.22
  42   1    -0.00  -0.12   0.08     0.00  -0.00   0.00     0.01   0.18  -0.13
  43   1    -0.06   0.09   0.27     0.00  -0.00  -0.00     0.02  -0.04  -0.11
  44   1    -0.00  -0.20   0.15    -0.00  -0.00   0.00     0.00   0.11  -0.08
  45   1    -0.03   0.06   0.14     0.00  -0.00  -0.00     0.03  -0.05  -0.15
  46   1    -0.01   0.03   0.06     0.00  -0.00  -0.00     0.07  -0.11  -0.34
  47   1    -0.01  -0.18   0.14    -0.00  -0.00   0.00    -0.01  -0.11   0.10
  48   1     0.01   0.00   0.00    -0.03  -0.02  -0.01     0.02   0.02   0.00
  49   1     0.00   0.04  -0.03     0.00  -0.01   0.01    -0.00  -0.01   0.00
  50   1     0.00  -0.01  -0.02     0.01  -0.01  -0.03    -0.01   0.01   0.04
                    139                    140                    141
                        a                      a                      a 
 Frequencies --  2980.7204              2987.0978              2983.5401
 Red. masses --    99.0000                99.0000                99.0000
 Frc consts  --    99.0000                99.0000                99.0000
 IR Inten    --    99.0000                99.0000                99.0000
 Raman Activ --     0.0000                 0.0000                 0.0000
 Depolar     --     0.0000                 0.0000                 0.0000
 Atom AN      X      Y      Z        X      Y      Z        X      Y      Z
   1   6    -0.00  -0.01   0.01    -0.00  -0.01   0.01    -0.00  -0.01   0.00
   2   6     0.05   0.03  -0.03     0.03   0.01  -0.03     0.04   0.03  -0.02
   3   6     0.02   0.02  -0.00     0.03   0.01  -0.04     0.04   0.03  -0.01
   4   6     0.02   0.02   0.01     0.03   0.01  -0.04     0.03   0.03   0.01
   5   6    -0.02   0.01   0.05     0.03   0.01  -0.04     0.02   0.04   0.04
   6   6    -0.00   0.02   0.05     0.00  -0.01  -0.03     0.02   0.05   0.06
   7   6    -0.03   0.00   0.07     0.01  -0.01  -0.03    -0.01   0.03   0.09
   8   6    -0.00  -0.01   0.02     0.00  -0.02  -0.01    -0.02   0.03   0.11
   9   6    -0.00   0.05  -0.01     0.00  -0.09   0.03    -0.02  -0.05   0.11
  10   6     0.01  -0.06  -0.03    -0.00   0.00   0.02    -0.02   0.01   0.09
  11   6     0.01  -0.05  -0.03    -0.01   0.03   0.02    -0.01  -0.01   0.07
  12   6     0.01  -0.06  -0.03    -0.01   0.07   0.03    -0.01  -0.01   0.05
  13   6    -0.00   0.01  -0.01    -0.01   0.08   0.03    -0.00  -0.03   0.03
  14   6    -0.00   0.04   0.00    -0.01   0.08   0.03     0.00  -0.04   0.02
  15   6    -0.01   0.10   0.02    -0.01   0.07   0.02     0.00  -0.05   0.01
  16   6    -0.01  -0.01  -0.00    -0.01  -0.02  -0.01     0.00   0.01  -0.00
  17   1     0.02   0.02   0.01     0.02   0.02   0.01     0.02   0.02   0.01
  18   1     0.00  -0.01  -0.01     0.00  -0.01  -0.03     0.00  -0.01  -0.01
  19   1    -0.00   0.02  -0.02    -0.00   0.02  -0.02    -0.00   0.02  -0.02
  20   1    -0.17  -0.19  -0.06    -0.09  -0.10  -0.04    -0.13  -0.14  -0.05
  21   1    -0.02   0.07   0.19    -0.02   0.05   0.15    -0.01   0.04   0.12
  22   1    -0.08  -0.09  -0.03    -0.10  -0.11  -0.04    -0.12  -0.14  -0.04
  23   1     0.00   0.01   0.02    -0.02   0.06   0.17    -0.00   0.02   0.06
  24   1     0.01  -0.00  -0.02    -0.02   0.06   0.18     0.00   0.01   0.01
  25   1    -0.07  -0.07  -0.02    -0.09  -0.10  -0.04    -0.11  -0.13  -0.04
  26   1     0.03  -0.07  -0.22    -0.02   0.06   0.17     0.02  -0.03  -0.10
  27   1     0.04   0.05   0.02    -0.07  -0.08  -0.03    -0.08  -0.09  -0.03
  28   1     0.03  -0.05  -0.17    -0.02   0.03   0.11     0.03  -0.05  -0.17
  29   1    -0.03  -0.03  -0.00     0.01   0.01  -0.00    -0.12  -0.13  -0.04
  30   1     0.08   0.09   0.04    -0.01  -0.01  -0.01    -0.01  -0.00   0.01
  31   1     0.03  -0.09  -0.28    -0.01   0.03   0.11     0.04  -0.10  -0.30
  32   1     0.01  -0.01  -0.04    -0.01   0.01   0.07     0.07  -0.09  -0.40
  33   1    -0.00   0.05  -0.03    -0.00   0.06  -0.04    -0.00  -0.02   0.03
  34   1    -0.01  -0.16   0.12     0.01   0.30  -0.22     0.01   0.27  -0.18
  35   1     0.01  -0.01  -0.08    -0.02   0.02   0.13     0.04  -0.07  -0.22
  36   1    -0.05   0.06   0.25     0.01  -0.02  -0.06     0.06  -0.09  -0.30
  37   1     0.00   0.16  -0.13    -0.00   0.00  -0.00    -0.00   0.04  -0.02
  38   1     0.00   0.12  -0.09    -0.00  -0.07   0.06     0.00   0.09  -0.06
  39   1    -0.04   0.05   0.19     0.03  -0.03  -0.12     0.03  -0.05  -0.17
  40   1    -0.05   0.07   0.25     0.05  -0.06  -0.23     0.03  -0.04  -0.12
  41   1     0.00   0.16  -0.13    -0.01  -0.17   0.14     0.00   0.08  -0.05
  42   1    -0.00  -0.05   0.04    -0.01  -0.20   0.17     0.00   0.13  -0.10
  43   1     0.00  -0.00  -0.02     0.05  -0.07  -0.26     0.00  -0.01  -0.01
  44   1    -0.00  -0.10   0.08    -0.01  -0.20   0.17     0.00   0.12  -0.09
  45   1     0.02  -0.02  -0.08     0.05  -0.07  -0.25    -0.00   0.00   0.02
  46   1     0.07  -0.09  -0.32     0.05  -0.07  -0.24    -0.02   0.02   0.09
  47   1    -0.01  -0.28   0.24    -0.01  -0.19   0.16     0.01   0.14  -0.11
  48   1     0.03   0.02   0.01     0.03   0.03   0.01    -0.01  -0.01  -0.01
  49   1    -0.00   0.03  -0.03    -0.00   0.03  -0.03    -0.00  -0.02   0.02
  50   1    -0.01   0.01   0.03    -0.01   0.01   0.05     0.00  -0.00  -0.01
                    142                    143                    144
                        a                      a                      a 
 Frequencies --  2990.8445              3037.3975              3037.3191
 Red. masses --    99.0000                99.0000                99.0000
 Frc consts  --    99.0000                99.0000                99.0000
 IR Inten    --    99.0000                99.0000                99.0000
 Raman Activ --     0.0000                 0.0000                 0.0000
 Depolar     --     0.0000                 0.0000                 0.0000
 Atom AN      X      Y      Z        X      Y      Z        X      Y      Z
   1   6     0.00   0.01  -0.01    -0.04   0.03  -0.01     0.12  -0.08   0.01
   2   6    -0.02  -0.01   0.02    -0.00   0.00   0.00     0.01  -0.00  -0.00
   3   6    -0.03  -0.01   0.03    -0.00  -0.00   0.00     0.00   0.00  -0.00
   4   6    -0.04  -0.02   0.04    -0.00  -0.00  -0.00     0.00  -0.00  -0.00
   5   6    -0.04  -0.02   0.04    -0.00  -0.00   0.00     0.00   0.00  -0.00
   6   6    -0.07  -0.05   0.04     0.00  -0.00  -0.00    -0.00  -0.00   0.00
   7   6    -0.02  -0.00   0.04    -0.00  -0.00   0.00     0.00   0.00  -0.00
   8   6    -0.01   0.03   0.04     0.00  -0.00  -0.00    -0.00   0.00  -0.00
   9   6    -0.01   0.08   0.02    -0.00   0.00   0.00     0.00   0.00  -0.00
  10   6    -0.01   0.06   0.03     0.00  -0.00  -0.00     0.00   0.00  -0.00
  11   6    -0.01   0.06   0.03    -0.00   0.00   0.00    -0.00   0.00  -0.00
  12   6    -0.01   0.06   0.02     0.00  -0.00  -0.00     0.00  -0.00  -0.00
  13   6    -0.01   0.05   0.02     0.00   0.00   0.00     0.00   0.00  -0.00
  14   6    -0.01   0.04   0.01     0.00  -0.00  -0.00     0.00  -0.00  -0.00
  15   6    -0.00   0.03   0.01     0.01  -0.00  -0.00     0.00  -0.00  -0.00
  16   6    -0.00  -0.01  -0.00     0.14  -0.02   0.01     0.05  -0.01   0.00
  17   1    -0.01  -0.02  -0.01     0.11   0.12   0.03    -0.31  -0.35  -0.10
  18   1    -0.00   0.01   0.02     0.02  -0.05  -0.16    -0.05   0.15   0.46
  19   1     0.00  -0.02   0.02     0.02  -0.17   0.14    -0.06   0.49  -0.41
  20   1     0.06   0.07   0.02     0.00   0.00   0.00    -0.01  -0.01  -0.00
  21   1     0.01  -0.04  -0.10    -0.00  -0.00  -0.00     0.00   0.00   0.01
  22   1     0.08   0.09   0.03     0.00   0.00   0.00    -0.01  -0.01  -0.00
  23   1     0.01  -0.04  -0.12     0.00  -0.00  -0.00    -0.00   0.00   0.01
  24   1     0.02  -0.06  -0.16     0.00  -0.00  -0.00    -0.00   0.00   0.00
  25   1     0.10   0.12   0.04     0.00   0.00   0.00    -0.00  -0.00  -0.00
  26   1     0.02  -0.06  -0.17     0.00  -0.00  -0.00    -0.00   0.00   0.00
  27   1     0.11   0.13   0.05     0.00   0.00   0.00    -0.00  -0.00  -0.00
  28   1     0.03  -0.08  -0.23    -0.00   0.00   0.00     0.00  -0.00  -0.00
  29   1     0.22   0.26   0.09     0.00   0.00   0.00     0.00   0.00   0.00
  30   1     0.06   0.06   0.03     0.00   0.00   0.00    -0.00  -0.00  -0.00
  31   1     0.02  -0.06  -0.17     0.00  -0.00  -0.00    -0.00   0.00   0.00
  32   1     0.03  -0.04  -0.18    -0.00   0.00   0.00     0.00  -0.00  -0.00
  33   1     0.00  -0.06   0.05    -0.00   0.00  -0.00     0.00  -0.00   0.00
  34   1    -0.01  -0.22   0.16    -0.00  -0.00   0.00    -0.00  -0.00   0.00
  35   1     0.05  -0.05  -0.22     0.00  -0.00  -0.00    -0.00   0.00   0.00
  36   1     0.04  -0.05  -0.21    -0.00   0.00   0.00    -0.00   0.00   0.00
  37   1    -0.01  -0.15   0.12     0.00   0.00  -0.00     0.00  -0.00   0.00
  38   1    -0.01  -0.16   0.13    -0.00  -0.00   0.00    -0.00  -0.00   0.00
  39   1     0.04  -0.06  -0.22     0.00  -0.00  -0.00     0.00  -0.00  -0.00
  40   1     0.04  -0.05  -0.20    -0.00   0.00   0.00    -0.00   0.00   0.00
  41   1    -0.00  -0.15   0.12     0.00   0.00  -0.00     0.00   0.00  -0.00
  42   1    -0.01  -0.13   0.11    -0.00   0.00  -0.00    -0.00  -0.00  -0.00
  43   1     0.04  -0.05  -0.17    -0.00   0.00   0.00    -0.00   0.00   0.00
  44   1    -0.00  -0.10   0.08     0.00   0.01  -0.01     0.00   0.00  -0.00
  45   1     0.03  -0.04  -0.13    -0.00   0.00   0.01    -0.00   0.00   0.00
  46   1     0.02  -0.03  -0.11    -0.00   0.00   0.01    -0.00   0.00   0.00
  47   1    -0.00  -0.08   0.07     0.00   0.01  -0.01     0.00   0.00  -0.00
  48   1     0.02   0.02   0.01    -0.45  -0.43  -0.20    -0.16  -0.15  -0.07
  49   1     0.00   0.02  -0.02     0.02   0.37  -0.29     0.01   0.13  -0.10
  50   1    -0.01   0.01   0.03    -0.08   0.15   0.44    -0.03   0.05   0.16
