      -----------------------------------------------------------      
     |                   =====================                   |     
     |                           x T B                           |     
     |                   =====================                   |     
     |                         S. Grimme                         |     
     |          Mulliken Center for Theoretical Chemistry        |     
     |                    University of Bonn                     |     
      -----------------------------------------------------------      

   * xtb version 6.6.1 (8d0f1dd) compiled by 'stahn@M-Bot' on 2023-08-01

   xtb is free software: you can redistribute it and/or modify it under
   the terms of the GNU Lesser General Public License as published by
   the Free Software Foundation, either version 3 of the License, or
   (at your option) any later version.
   
   xtb is distributed in the hope that it will be useful,
   but WITHOUT ANY WARRANTY; without even the implied warranty of
   MERCHANTABILITY or FITNESS FOR A PARTICULAR PURPOSE.  See the
   GNU Lesser General Public License for more details.
   
   Cite this work as:
   * C. Bannwarth, E. Caldeweyher, S. Ehlert, A. Hansen, P. Pracht,
     J. Seibert, S. Spicher, S. Grimme, WIREs Comput. Mol. Sci., 2020, 11,
     e01493. DOI: 10.1002/wcms.1493
   
   for GFN2-xTB:
   * C. Bannwarth, S. Ehlert and S. Grimme., J. Chem. Theory Comput., 2019,
     15, 1652-1671. DOI: 10.1021/acs.jctc.8b01176
   for GFN1-xTB:
   * S. Grimme, C. Bannwarth, P. Shushkov, J. Chem. Theory Comput., 2017,
     13, 1989-2009. DOI: 10.1021/acs.jctc.7b00118
   for GFN0-xTB:
   * P. Pracht, E. Caldeweyher, S. Ehlert, S. Grimme, ChemRxiv, 2019, preprint.
     DOI: 10.26434/chemrxiv.8326202.v1
   for GFN-FF:
   * S. Spicher and S. Grimme, Angew. Chem. Int. Ed., 2020, 59, 15665-15673.
     DOI: 10.1002/anie.202004239
   
   for ALPB and GBSA implicit solvation:
   * S. Ehlert, M. Stahn, S. Spicher, S. Grimme, J. Chem. Theory Comput.,
     2021, 17, 4250-4261. DOI: 10.1021/acs.jctc.1c00471
   
   for DFT-D4:
   * E. Caldeweyher, C. Bannwarth and S. Grimme, J. Chem. Phys., 2017,
     147, 034112. DOI: 10.1063/1.4993215
   * E. Caldeweyher, S. Ehlert, A. Hansen, H. Neugebauer, S. Spicher,
     C. Bannwarth and S. Grimme, J. Chem. Phys., 2019, 150, 154122.
     DOI: 10.1063/1.5090222
   * E. Caldeweyher, J.-M. Mewes, S. Ehlert and S. Grimme, Phys. Chem. Chem. Phys.
     2020, 22, 8499-8512. DOI: 10.1039/D0CP00502A
   
   for sTDA-xTB:
   * S. Grimme and C. Bannwarth, J. Chem. Phys., 2016, 145, 054103.
     DOI: 10.1063/1.4959605
   
   in the mass-spec context:
   * V. Asgeirsson, C. Bauer and S. Grimme, Chem. Sci., 2017, 8, 4879.
     DOI: 10.1039/c7sc00601b
   * J. Koopman and S. Grimme, ACS Omega 2019, 4, 12, 15120-15133.
     DOI: 10.1021/acsomega.9b02011
   
   for metadynamics refer to:
   * S. Grimme, J. Chem. Theory Comput., 2019, 155, 2847-2862
     DOI: 10.1021/acs.jctc.9b00143
   
   for SPH calculations refer to:
   * S. Spicher and S. Grimme, J. Chem. Theory Comput., 2021, 17, 1701-1714
     DOI: 10.1021/acs.jctc.0c01306
   
   with help from (in alphabetical order)
   P. Atkinson, C. Bannwarth, F. Bohle, G. Brandenburg, E. Caldeweyher
   M. Checinski, S. Dohm, S. Ehlert, S. Ehrlich, I. Gerasimov, C. Hölzer
   A. Katbashev, J. Koopman, C. Lavigne, S. Lehtola, F. März, M. Müller,
   F. Musil, H. Neugebauer, J. Pisarek, C. Plett, P. Pracht, F. Pultar,
   J. Seibert, P. Shushkov, S. Spicher, M. Stahn, M. Steiner, T. Strunk,
   J. Stückrath, T. Rose, and J. Unsleber
   
 * started run on 2024/04/23 at 12:10:49.703     

           -------------------------------------------------
          |                Calculation Setup                |
           -------------------------------------------------

          program call               : xtb unfolded.xyz --gfn 2 --ohess -P 4
          coordinate file            : unfolded.xyz
          omp threads                :                     4

   ID    Z sym.   atoms
    1    6 C      1-16
    2    1 H      17-50

           -------------------------------------------------
          |                 G F N 2 - x T B                 |
           -------------------------------------------------

        Reference                      10.1021/acs.jctc.8b01176
      * Hamiltonian:
        H0-scaling (s, p, d)           1.850000    2.230000    2.230000
        zeta-weighting                 0.500000
      * Dispersion:
        s8                             2.700000
        a1                             0.520000
        a2                             5.000000
        s9                             5.000000
      * Repulsion:
        kExp                           1.500000    1.000000
        rExp                           1.000000
      * Coulomb:
        alpha                          2.000000
        third order                    shell-resolved
        anisotropic                    true
        a3                             3.000000
        a5                             4.000000
        cn-shift                       1.200000
        cn-exp                         4.000000
        max-rad                        5.000000


          ...................................................
          :                      SETUP                      :
          :.................................................:
          :  # basis functions                  98          :
          :  # atomic orbitals                  98          :
          :  # shells                           66          :
          :  # electrons                        98          :
          :  max. iterations                   250          :
          :  Hamiltonian                  GFN2-xTB          :
          :  restarted?                      false          :
          :  GBSA solvation                  false          :
          :  PC potential                    false          :
          :  electronic temp.          300.0000000     K    :
          :  accuracy                    1.0000000          :
          :  -> integral cutoff          0.2500000E+02      :
          :  -> integral neglect         0.1000000E-07      :
          :  -> SCF convergence          0.1000000E-05 Eh   :
          :  -> wf. convergence          0.1000000E-03 e    :
          :  Broyden damping             0.4000000          :
          ...................................................

 iter      E             dE          RMSdq      gap      omega  full diag
   1    -52.2501814 -0.522502E+02  0.253E+00   11.89       0.0  T
   2    -52.3808703 -0.130689E+00  0.137E+00   11.88       1.0  T
   3    -52.3826600 -0.178966E-02  0.727E-01   11.88       1.0  T
   4    -52.3830245 -0.364580E-03  0.823E-02   11.92       1.0  T
   5    -52.3830333 -0.871790E-05  0.415E-02   11.92       1.0  T
   6    -52.3830364 -0.316191E-05  0.209E-03   11.92       6.8  T
   7    -52.3830365 -0.640100E-07  0.912E-04   11.92      15.5  T
   8    -52.3830365 -0.360924E-08  0.337E-04   11.92      42.0  T

   *** convergence criteria satisfied after 8 iterations ***

         #    Occupation            Energy/Eh            Energy/eV
      -------------------------------------------------------------
         1        2.0000           -0.6224645             -16.9381
       ...           ...                  ...                  ...
        43        2.0000           -0.4208874             -11.4529
        44        2.0000           -0.4181317             -11.3779
        45        2.0000           -0.4166503             -11.3376
        46        2.0000           -0.4150386             -11.2938
        47        2.0000           -0.4144475             -11.2777
        48        2.0000           -0.4118624             -11.2073
        49        2.0000           -0.4100140             -11.1570 (HOMO)
        50                          0.0280502               0.7633 (LUMO)
        51                          0.0403285               1.0974
        52                          0.0819971               2.2313
        53                          0.0905488               2.4640
        54                          0.0951999               2.5905
       ...                                ...                  ...
        98                          0.3107517               8.4560
      -------------------------------------------------------------
                  HL-Gap            0.4380643 Eh           11.9203 eV
             Fermi-level           -0.1909819 Eh           -5.1969 eV

 SCC (total)                   0 d,  0 h,  0 min,  0.041 sec
 SCC setup                      ...        0 min,  0.000 sec (  0.992%)
 Dispersion                     ...        0 min,  0.000 sec (  1.221%)
 classical contributions        ...        0 min,  0.000 sec (  0.124%)
 integral evaluation            ...        0 min,  0.002 sec (  4.911%)
 iterations                     ...        0 min,  0.031 sec ( 76.046%)
 molecular gradient             ...        0 min,  0.006 sec ( 15.725%)
 printout                       ...        0 min,  0.000 sec (  0.898%)

         :::::::::::::::::::::::::::::::::::::::::::::::::::::
         ::                     SUMMARY                     ::
         :::::::::::::::::::::::::::::::::::::::::::::::::::::
         :: total energy             -51.633732491649 Eh    ::
         :: gradient norm              0.035475728261 Eh/a0 ::
         :: HOMO-LUMO gap             11.920335450232 eV    ::
         ::.................................................::
         :: SCC energy               -52.383036489566 Eh    ::
         :: -> isotropic ES            0.007940889716 Eh    ::
         :: -> anisotropic ES          0.016860862801 Eh    ::
         :: -> anisotropic XC          0.030541123827 Eh    ::
         :: -> dispersion             -0.032861973265 Eh    ::
         :: repulsion energy           0.749669674166 Eh    ::
         :: add. restraining           0.000000000000 Eh    ::
         :: total charge              -0.000000000000 e     ::
         :::::::::::::::::::::::::::::::::::::::::::::::::::::

      ----------------------------------------------------------- 
     |                   =====================                   |
     |                        A N C O P T                        |
     |                   =====================                   |
     |               Approximate Normal Coordinate               |
     |                Rational Function Optimizer                |
      ----------------------------------------------------------- 

          ...................................................
          :                      SETUP                      :
          :.................................................:
          :   optimization level            normal          :
          :   max. optcycles                   200          :
          :   ANC micro-cycles                  20          :
          :   degrees of freedom               144          :
          :.................................................:
          :   RF solver                   davidson          :
          :   write xtbopt.log                true          :
          :   linear?                        false          :
          :   energy convergence         0.5000000E-05 Eh   :
          :   grad. convergence          0.1000000E-02 Eh/α :
          :   maxmium RF displ.          2.0000000          :
          :   Hlow (freq-cutoff)         0.2000000E-01      :
          :   Hmax (freq-cutoff)         5.0000000          :
          :   S6 in model hess.         70.0000000          :
          ...................................................

generating ANC from model Hessian ...
Using Lindh-Hessian (1995)
 Shifting diagonal of input Hessian by   1.978949463178970E-002
 Lowest  eigenvalues of input Hessian
    0.000000    0.000000    0.000000    0.000000    0.000000    0.000000
    0.020000    0.020563    0.020704    0.021587    0.021903    0.022301
    0.023071    0.023452    0.024118    0.024495    0.024936    0.025504
 Highest eigenvalues
    1.245398    1.257217    1.283224    1.306887    1.330661    1.340609
 

........................................................................
.............................. CYCLE    1 ..............................
........................................................................

 iter      E             dE          RMSdq      gap      omega  full diag
   1    -52.3830365 -0.523830E+02  0.820E-05   11.92       0.0  T
   2    -52.3830365 -0.142677E-10  0.475E-05   11.92     297.8  T
   3    -52.3830365 -0.210321E-11  0.956E-06   11.92    1479.5  T
     SCC iter.                  ...        0 min,  0.004 sec
     gradient                   ...        0 min,  0.006 sec
 * total energy  :   -51.6337325 Eh     change       -0.4028209E-09 Eh
   gradient norm :     0.0354755 Eh/α   predicted     0.0000000E+00 (-100.00%)
   displ. norm   :     0.1977176 α      lambda       -0.4036142E-02
   maximum displ.:     0.1083788 α      in ANC's #66, #65, #43, ...

........................................................................
.............................. CYCLE    2 ..............................
........................................................................

 iter      E             dE          RMSdq      gap      omega  full diag
   1    -52.3948985 -0.523949E+02  0.129E-01   11.98       0.0  T
   2    -52.3949042 -0.572298E-05  0.740E-02   11.98       1.0  T
   3    -52.3949054 -0.121660E-05  0.318E-03   11.97       4.4  T
   4    -52.3949055 -0.517142E-07  0.126E-03   11.97      11.2  T
   5    -52.3949055 -0.196565E-08  0.621E-04   11.97      22.8  T
   6    -52.3949055 -0.817657E-09  0.360E-05   11.97     392.9  T
     SCC iter.                  ...        0 min,  0.009 sec
     gradient                   ...        0 min,  0.008 sec
 * total energy  :   -51.6364237 Eh     change       -0.2691209E-02 Eh
   gradient norm :     0.0163531 Eh/α   predicted    -0.2096985E-02 ( -22.08%)
   displ. norm   :     0.1295639 α      lambda       -0.8652319E-03
   maximum displ.:     0.0539604 α      in ANC's #9, #12, #66, ...

........................................................................
.............................. CYCLE    3 ..............................
........................................................................

 iter      E             dE          RMSdq      gap      omega  full diag
   1    -52.4040314 -0.524040E+02  0.649E-02   12.01       0.0  T
   2    -52.4040354 -0.405552E-05  0.366E-02   12.01       1.0  T
   3    -52.4040356 -0.214319E-06  0.368E-03   12.01       3.8  T
   4    -52.4040357 -0.392191E-07  0.683E-04   12.01      20.7  T
   5    -52.4040357 -0.244606E-08  0.386E-04   12.01      36.6  T
     SCC iter.                  ...        0 min,  0.006 sec
     gradient                   ...        0 min,  0.006 sec
 * total energy  :   -51.6369090 Eh     change       -0.4853087E-03 Eh
   gradient norm :     0.0024412 Eh/α   predicted    -0.4399081E-03 (  -9.35%)
   displ. norm   :     0.0558174 α      lambda       -0.6526804E-04
   maximum displ.:     0.0305226 α      in ANC's #9, #12, #19, ...

........................................................................
.............................. CYCLE    4 ..............................
........................................................................

 iter      E             dE          RMSdq      gap      omega  full diag
   1    -52.4064070 -0.524064E+02  0.133E-02   12.04       0.0  T
   2    -52.4064072 -0.195639E-06  0.751E-03   12.04       1.9  T
   3    -52.4064072 -0.524164E-08  0.909E-04   12.04      15.6  T
   4    -52.4064072 -0.199974E-08  0.163E-04   12.04      86.5  T
     SCC iter.                  ...        0 min,  0.006 sec
     gradient                   ...        0 min,  0.007 sec
 * total energy  :   -51.6369608 Eh     change       -0.5175440E-04 Eh
   gradient norm :     0.0017270 Eh/α   predicted    -0.3401730E-04 ( -34.27%)
   displ. norm   :     0.1396247 α      lambda       -0.7228597E-04
   maximum displ.:     0.0767627 α      in ANC's #9, #12, #8, ...

........................................................................
.............................. CYCLE    5 ..............................
........................................................................

 iter      E             dE          RMSdq      gap      omega  full diag
   1    -52.4094759 -0.524095E+02  0.276E-02   12.10       0.0  T
   2    -52.4094761 -0.190641E-06  0.160E-02   12.10       1.0  T
   3    -52.4094761 -0.319019E-07  0.790E-04   12.10      17.9  T
   4    -52.4094761 -0.408480E-08  0.358E-04   12.10      39.5  T
     SCC iter.                  ...        0 min,  0.005 sec
     gradient                   ...        0 min,  0.006 sec
 * total energy  :   -51.6370088 Eh     change       -0.4805889E-04 Eh
   gradient norm :     0.0034617 Eh/α   predicted    -0.3648171E-04 ( -24.09%)
   displ. norm   :     0.0093863 α      lambda       -0.1221510E-04
   maximum displ.:     0.0059012 α      in ANC's #23, #27, #25, ...

........................................................................
.............................. CYCLE    6 ..............................
........................................................................

 iter      E             dE          RMSdq      gap      omega  full diag
   1    -52.4085637 -0.524086E+02  0.343E-03   12.11       0.0  T
   2    -52.4085638 -0.664925E-07  0.188E-03   12.11       7.5  T
   3    -52.4085638 -0.871282E-09  0.595E-04   12.11      23.8  T
   4    -52.4085638 -0.244107E-09  0.625E-05   12.11     226.4  T
     SCC iter.                  ...        0 min,  0.005 sec
     gradient                   ...        0 min,  0.007 sec
 * total energy  :   -51.6370182 Eh     change       -0.9327326E-05 Eh
   gradient norm :     0.0015944 Eh/α   predicted    -0.6117429E-05 ( -34.41%)
   displ. norm   :     0.0276076 α      lambda       -0.8926998E-05
   maximum displ.:     0.0147963 α      in ANC's #23, #8, #20, ...

........................................................................
.............................. CYCLE    7 ..............................
........................................................................

 iter      E             dE          RMSdq      gap      omega  full diag
   1    -52.4072579 -0.524073E+02  0.555E-03   12.12       0.0  T
   2    -52.4072580 -0.164719E-06  0.315E-03   12.12       4.5  T
   3    -52.4072580 -0.289760E-08  0.951E-04   12.12      14.9  T
   4    -52.4072580 -0.848544E-09  0.122E-04   12.12     115.9  T
     SCC iter.                  ...        0 min,  0.005 sec
     gradient                   ...        0 min,  0.006 sec
 * total energy  :   -51.6370230 Eh     change       -0.4854902E-05 Eh
   gradient norm :     0.0014589 Eh/α   predicted    -0.4465305E-05 (  -8.02%)
   displ. norm   :     0.0066407 α      lambda       -0.1726591E-05
   maximum displ.:     0.0029846 α      in ANC's #8, #20, #12, ...

........................................................................
.............................. CYCLE    8 ..............................
........................................................................

 iter      E             dE          RMSdq      gap      omega  full diag
   1    -52.4077343 -0.524077E+02  0.181E-03   12.12       0.0  T
   2    -52.4077343 -0.169077E-07  0.992E-04   12.12      14.3  T
   3    -52.4077343 -0.161577E-09  0.300E-04   12.12      47.1  T
     SCC iter.                  ...        0 min,  0.004 sec
     gradient                   ...        0 min,  0.006 sec
 * total energy  :   -51.6370250 Eh     change       -0.1952948E-05 Eh
   gradient norm :     0.0005382 Eh/α   predicted    -0.8711320E-06 ( -55.39%)
   displ. norm   :     0.0207367 α      lambda       -0.1870286E-05
   maximum displ.:     0.0092730 α      in ANC's #8, #20, #1, ...

   *** GEOMETRY OPTIMIZATION CONVERGED AFTER 8 ITERATIONS ***

------------------------------------------------------------------------
 total energy gain   :        -0.0032925 Eh       -2.0661 kcal/mol
 total RMSD          :         0.0658294 a0        0.0348 Å
 total power (kW/mol):        -1.0805462 (step)  -63.3505 (real)
------------------------------------------------------------------------

 ANCopt (total)                0 d,  0 h,  0 min,  0.136 sec
 optimizer setup                ...        0 min,  0.001 sec (  0.610%)
 model hessian                  ...        0 min,  0.016 sec ( 12.056%)
 ANC generation                 ...        0 min,  0.002 sec (  1.380%)
 coordinate transformation      ...        0 min,  0.000 sec (  0.154%)
 single point calculation       ...        0 min,  0.114 sec ( 83.621%)
 optimization log               ...        0 min,  0.001 sec (  0.913%)
 hessian update                 ...        0 min,  0.000 sec (  0.138%)
 rational function              ...        0 min,  0.001 sec (  0.467%)

================
 final structure:
================
50
 xtb: 6.6.1 (8d0f1dd)
C            7.52215862284177       -3.88627174508459        2.24089116732815
C            6.11888060367689       -3.31161551106276        2.38760041555474
C            5.88387924822819       -2.13153574287609        1.44775181114552
C            4.47416234266277       -1.56238029319519        1.58465989858943
C            4.23707669887174       -0.37201746857158        0.65860415272957
C            2.81489674935050        0.16995636205940        0.78013891510294
C            2.57548445189338        1.35892770806045       -0.14757021784313
C            1.17896093907193        1.96571339464104       -0.00796542389232
C            0.06632572376778        1.04388440602600       -0.50221997689201
C           -1.30158990236886        1.71959764307529       -0.44688285958330
C           -2.41627549138332        0.79131412467658       -0.92265414182110
C           -3.78541722555700        1.46500356826789       -0.88280793080919
C           -4.89826660820265        0.52855287005365       -1.34681704338515
C           -6.26619382052322        1.20554127749597       -1.32641969997332
C           -7.38082316275701        0.26598448482571       -1.77990981350692
C           -8.74112134544756        0.95196190030360       -1.76839681106571
H            8.27011429174636       -3.12800197779737        2.46288927676190
H            7.68547531962852       -4.23943006378504        1.22486245762570
H            7.66790213760409       -4.72168416198847        2.92196963426387
H            5.38359746070656       -4.09174319718714        2.17633862423933
H            5.96626861260927       -2.98558352146338        3.41920439212069
H            6.61347352542972       -1.34732651420168        1.66423505499762
H            6.04415866093421       -2.45484392105326        0.41625869071293
H            4.30959370114374       -1.25183600534117        2.61945958651396
H            3.74680511539362       -2.34576164487443        1.35717426755974
H            4.41899416679777       -0.67654290269604       -0.37504309027227
H            4.95008995133722        0.42067573050069        0.89830789287052
H            2.63257181479791        0.47694250984514        1.81296369811818
H            2.11235438529498       -0.63052328173545        0.54244207424210
H            3.31656361229371        2.13085485211033        0.07575049800751
H            2.72968826998048        1.04560304914458       -1.18301196793532
H            0.99898617678179        2.22007172162276        1.03935261565402
H            1.14285807836005        2.89498448210557       -0.58254617179332
H            0.03727120897817        0.13966273867971        0.10806588616150
H            0.27837583165430        0.74404102667436       -1.53145806848688
H           -1.50716141195463        2.03443142809134        0.57916157144391
H           -1.28831241388072        2.61729461096293       -1.06995023526528
H           -2.43553163251501       -0.10126985768451       -0.29241495582955
H           -2.20390550085946        0.46753369416426       -1.94456074867228
H           -3.99490757720835        1.79744342469429        0.13686080189352
H           -3.76990983969795        2.35176576896079       -1.52119078794869
H           -4.92146631654306       -0.35200436219324       -0.69998413022688
H           -4.68091264890008        0.18527498264544       -2.36133877595783
H           -6.24504847054139        2.08089861981780       -1.98025487008616
H           -6.48055811432663        1.55609221681885       -0.31381056943040
H           -7.16277801659267       -0.09076500904604       -2.78936384555932
H           -7.40782667167874       -0.60518822152689       -1.12105249708528
H           -9.52049501565796        0.26551409263258       -2.09140519296125
H           -8.74093147544678        1.81013261196952       -2.43717606732306
H           -8.98407503979431        1.30028510243777       -0.76671449003141
           -------------------------------------------------
          |                Final Singlepoint                |
           -------------------------------------------------

          ...................................................
          :                      SETUP                      :
          :.................................................:
          :  # basis functions                  98          :
          :  # atomic orbitals                  98          :
          :  # shells                           66          :
          :  # electrons                        98          :
          :  max. iterations                   250          :
          :  Hamiltonian                  GFN2-xTB          :
          :  restarted?                      false          :
          :  GBSA solvation                  false          :
          :  PC potential                    false          :
          :  electronic temp.          300.0000000     K    :
          :  accuracy                    1.0000000          :
          :  -> integral cutoff          0.2500000E+02      :
          :  -> integral neglect         0.1000000E-07      :
          :  -> SCF convergence          0.1000000E-05 Eh   :
          :  -> wf. convergence          0.1000000E-03 e    :
          :  Broyden damping             0.4000000          :
          ...................................................

 iter      E             dE          RMSdq      gap      omega  full diag
   1    -52.4077343 -0.524077E+02  0.273E-05   12.12       0.0  T
   2    -52.4077343 -0.929390E-11  0.136E-05   12.12    1042.2  T
   3    -52.4077343 -0.412115E-12  0.701E-06   12.12    2017.2  T

   *** convergence criteria satisfied after 3 iterations ***

         #    Occupation            Energy/Eh            Energy/eV
      -------------------------------------------------------------
         1        2.0000           -0.6233846             -16.9632
       ...           ...                  ...                  ...
        43        2.0000           -0.4215029             -11.4697
        44        2.0000           -0.4191135             -11.4047
        45        2.0000           -0.4177489             -11.3675
        46        2.0000           -0.4167739             -11.3410
        47        2.0000           -0.4163034             -11.3282
        48        2.0000           -0.4109415             -11.1823
        49        2.0000           -0.4088710             -11.1259 (HOMO)
        50                          0.0363706               0.9897 (LUMO)
        51                          0.0487181               1.3257
        52                          0.0901618               2.4534
        53                          0.1024499               2.7878
        54                          0.1059762               2.8838
       ...                                ...                  ...
        98                          0.3277770               8.9193
      -------------------------------------------------------------
                  HL-Gap            0.4452416 Eh           12.1156 eV
             Fermi-level           -0.1862502 Eh           -5.0681 eV

 SCC (total)                   0 d,  0 h,  0 min,  0.014 sec
 SCC setup                      ...        0 min,  0.001 sec (  3.679%)
 Dispersion                     ...        0 min,  0.000 sec (  1.438%)
 classical contributions        ...        0 min,  0.000 sec (  0.345%)
 integral evaluation            ...        0 min,  0.003 sec ( 19.424%)
 iterations                     ...        0 min,  0.004 sec ( 27.775%)
 molecular gradient             ...        0 min,  0.006 sec ( 44.937%)
 printout                       ...        0 min,  0.000 sec (  2.153%)

         :::::::::::::::::::::::::::::::::::::::::::::::::::::
         ::                     SUMMARY                     ::
         :::::::::::::::::::::::::::::::::::::::::::::::::::::
         :: total energy             -51.637024958354 Eh    ::
         :: gradient norm              0.000539527691 Eh/a0 ::
         :: HOMO-LUMO gap             12.115639647743 eV    ::
         ::.................................................::
         :: SCC energy               -52.407734313206 Eh    ::
         :: -> isotropic ES            0.008486174031 Eh    ::
         :: -> anisotropic ES          0.016280896848 Eh    ::
         :: -> anisotropic XC          0.031073611520 Eh    ::
         :: -> dispersion             -0.033000715362 Eh    ::
         :: repulsion energy           0.771082540370 Eh    ::
         :: add. restraining           0.000000000000 Eh    ::
         :: total charge               0.000000000000 e     ::
         :::::::::::::::::::::::::::::::::::::::::::::::::::::

           ------------------------------------------------- 
          |                Numerical Hessian                |
           ------------------------------------------------- 
step length          :   0.00500
SCC accuracy         :   0.30000
Hessian scale factor :   1.00000
frozen atoms in %    :   0.00000    0
RMS gradient         :   0.00054
estimated CPU  time      0.59 min
estimated wall time      0.15 min

writing file <hessian>.

 projected vibrational frequencies (cm⁻¹)
eigval :       -0.00    -0.00    -0.00    -0.00     0.00     0.00
eigval :       15.73    21.29    29.28    38.38    46.26    64.33
eigval :       70.06    80.42    86.54   103.15   113.38   124.45
eigval :      139.55   142.57   148.06   151.30   196.11   211.76
eigval :      233.95   234.11   248.47   278.83   331.38   370.39
eigval :      395.63   466.67   470.30   480.75   536.12   766.23
eigval :      769.27   770.48   774.49   781.97   799.00   810.83
eigval :      847.85   863.31   906.72   929.27   940.57   941.03
eigval :      961.63   982.26  1001.94  1022.41  1032.55  1043.42
eigval :     1052.38  1065.02  1076.91  1085.78  1101.46  1104.41
eigval :     1107.56  1109.60  1113.18  1117.50  1129.28  1132.46
eigval :     1141.44  1173.69  1202.61  1207.12  1224.32  1227.55
eigval :     1238.19  1243.00  1257.42  1262.61  1270.79  1274.71
eigval :     1277.24  1280.09  1284.50  1290.55  1293.51  1294.66
eigval :     1297.28  1299.86  1305.18  1330.38  1334.08  1359.22
eigval :     1362.78  1375.04  1377.88  1378.96  1379.45  1380.76
eigval :     1416.49  1416.51  1491.28  1491.48  1495.64  1495.84
eigval :     1496.75  1496.78  1498.08  1498.85  1500.09  1501.06
eigval :     1501.97  1502.37  1504.25  1504.97  1505.03  1505.86
eigval :     1508.04  1508.13  2951.97  2952.11  2953.25  2954.72
eigval :     2955.62  2956.49  2957.05  2961.25  2962.29  2966.97
eigval :     2969.16  2971.13  2971.30  2971.89  2972.34  2973.16
eigval :     2973.81  2975.30  2975.83  2976.28  2978.00  2978.65
eigval :     2980.72  2983.54  2984.36  2987.10  2990.84  2996.21
eigval :     3029.57  3029.71  3031.64  3031.76  3037.32  3037.40
           -------------------------------------------------
          |                Property Printout                |
           -------------------------------------------------

    * Orbital Energies and Occupations

         #    Occupation            Energy/Eh            Energy/eV
      -------------------------------------------------------------
         1        2.0000           -0.6233845             -16.9632
       ...           ...                  ...                  ...
        37        2.0000           -0.4378563             -11.9147
        38        2.0000           -0.4340322             -11.8106
        39        2.0000           -0.4301204             -11.7042
        40        2.0000           -0.4277066             -11.6385
        41        2.0000           -0.4271019             -11.6220
        42        2.0000           -0.4260591             -11.5937
        43        2.0000           -0.4215029             -11.4697
        44        2.0000           -0.4191135             -11.4047
        45        2.0000           -0.4177488             -11.3675
        46        2.0000           -0.4167739             -11.3410
        47        2.0000           -0.4163034             -11.3282
        48        2.0000           -0.4109415             -11.1823
        49        2.0000           -0.4088709             -11.1259 (HOMO)
        50                          0.0363707               0.9897 (LUMO)
        51                          0.0487181               1.3257
        52                          0.0901618               2.4534
        53                          0.1024500               2.7878
        54                          0.1059762               2.8838
        55                          0.1120584               3.0493
        56                          0.1137878               3.0963
        57                          0.1163144               3.1651
        58                          0.1175780               3.1995
        59                          0.1221051               3.3226
        60                          0.1284477               3.4952
       ...                                ...                  ...
        98                          0.3277770               8.9193
      -------------------------------------------------------------
                  HL-Gap            0.4452416 Eh           12.1156 eV
             Fermi-level           -0.1862501 Eh           -5.0681 eV

     #   Z          covCN         q      C6AA      α(0)
     1   6 C        3.752    -0.102    22.509     6.766
     2   6 C        3.801    -0.053    21.522     6.605
     3   6 C        3.803    -0.059    21.633     6.622
     4   6 C        3.803    -0.058    21.620     6.620
     5   6 C        3.803    -0.058    21.620     6.620
     6   6 C        3.802    -0.059    21.630     6.621
     7   6 C        3.802    -0.058    21.618     6.620
     8   6 C        3.802    -0.058    21.619     6.620
     9   6 C        3.802    -0.059    21.629     6.621
    10   6 C        3.803    -0.058    21.622     6.620
    11   6 C        3.803    -0.058    21.617     6.619
    12   6 C        3.803    -0.058    21.618     6.619
    13   6 C        3.803    -0.058    21.622     6.620
    14   6 C        3.803    -0.059    21.633     6.622
    15   6 C        3.801    -0.053    21.522     6.605
    16   6 C        3.752    -0.102    22.510     6.766
    17   1 H        0.925     0.033     2.542     2.493
    18   1 H        0.925     0.033     2.542     2.493
    19   1 H        0.925     0.033     2.551     2.498
    20   1 H        0.924     0.028     2.609     2.526
    21   1 H        0.924     0.028     2.609     2.526
    22   1 H        0.924     0.030     2.593     2.518
    23   1 H        0.924     0.030     2.592     2.518
    24   1 H        0.924     0.028     2.609     2.526
    25   1 H        0.924     0.028     2.610     2.526
    26   1 H        0.924     0.029     2.607     2.525
    27   1 H        0.924     0.028     2.614     2.528
    28   1 H        0.924     0.029     2.597     2.520
    29   1 H        0.924     0.031     2.566     2.505
    30   1 H        0.924     0.028     2.609     2.526
    31   1 H        0.924     0.030     2.592     2.518
    32   1 H        0.924     0.030     2.593     2.518
    33   1 H        0.924     0.029     2.607     2.525
    34   1 H        0.924     0.031     2.569     2.506
    35   1 H        0.924     0.030     2.593     2.518
    36   1 H        0.924     0.029     2.607     2.525
    37   1 H        0.924     0.028     2.612     2.527
    38   1 H        0.924     0.029     2.604     2.523
    39   1 H        0.924     0.029     2.601     2.522
    40   1 H        0.924     0.029     2.602     2.522
    41   1 H        0.924     0.029     2.602     2.522
    42   1 H        0.924     0.028     2.608     2.526
    43   1 H        0.924     0.029     2.608     2.525
    44   1 H        0.924     0.030     2.590     2.517
    45   1 H        0.924     0.030     2.591     2.517
    46   1 H        0.924     0.028     2.608     2.526
    47   1 H        0.924     0.028     2.609     2.526
    48   1 H        0.925     0.033     2.550     2.497
    49   1 H        0.925     0.033     2.542     2.493
    50   1 H        0.925     0.033     2.541     2.493

 Mol. C6AA /au·bohr⁶  :      16664.339982
 Mol. C8AA /au·bohr⁸  :     348645.532948
 Mol. α(0) /au        :        191.762207


Wiberg/Mayer (AO) data.
largest (>0.10) Wiberg bond orders for each atom

 ---------------------------------------------------------------------------
     #   Z sym  total        # sym  WBO       # sym  WBO       # sym  WBO
 ---------------------------------------------------------------------------
     1   6 C    3.997 --     2 C    1.019    18 H    0.988    17 H    0.988
                            19 H    0.988
     2   6 C    3.998 --     1 C    1.019     3 C    1.008    21 H    0.979
                            20 H    0.979
     3   6 C    3.997 --     2 C    1.008     4 C    1.007    22 H    0.978
                            23 H    0.978
     4   6 C    3.997 --     3 C    1.007     5 C    1.007    24 H    0.978
                            25 H    0.977
     5   6 C    3.997 --     4 C    1.007     6 C    1.007    26 H    0.978
                            27 H    0.978
     6   6 C    3.997 --     7 C    1.008     5 C    1.007    28 H    0.977
                            29 H    0.975
     7   6 C    3.997 --     6 C    1.008     8 C    1.006    31 H    0.977
                            30 H    0.977
     8   6 C    3.997 --     9 C    1.008     7 C    1.006    32 H    0.977
                            33 H    0.977
     9   6 C    3.997 --     8 C    1.008    10 C    1.007    35 H    0.977
                            34 H    0.975
    10   6 C    3.997 --    11 C    1.007     9 C    1.007    36 H    0.978
                            37 H    0.977
    11   6 C    3.997 --    10 C    1.007    12 C    1.007    39 H    0.977
                            38 H    0.977
    12   6 C    3.997 --    11 C    1.007    13 C    1.007    40 H    0.978
                            41 H    0.978
    13   6 C    3.997 --    14 C    1.007    12 C    1.007    42 H    0.978
                            43 H    0.977
    14   6 C    3.997 --    15 C    1.008    13 C    1.007    45 H    0.978
                            44 H    0.977
    15   6 C    3.998 --    16 C    1.019    14 C    1.008    47 H    0.979
                            46 H    0.979
    16   6 C    3.997 --    15 C    1.019    49 H    0.988    50 H    0.988
                            48 H    0.988
    17   1 H    0.999 --     1 C    0.988
    18   1 H    0.999 --     1 C    0.988
    19   1 H    0.999 --     1 C    0.988
    20   1 H    0.999 --     2 C    0.979
    21   1 H    0.999 --     2 C    0.979
    22   1 H    0.999 --     3 C    0.978
    23   1 H    0.999 --     3 C    0.978
    24   1 H    0.999 --     4 C    0.978
    25   1 H    0.999 --     4 C    0.977
    26   1 H    0.999 --     5 C    0.978
    27   1 H    0.999 --     5 C    0.978
    28   1 H    0.999 --     6 C    0.977
    29   1 H    0.999 --     6 C    0.975
    30   1 H    0.999 --     7 C    0.977
    31   1 H    0.999 --     7 C    0.977
    32   1 H    0.999 --     8 C    0.977
    33   1 H    0.999 --     8 C    0.977
    34   1 H    0.999 --     9 C    0.975
    35   1 H    0.999 --     9 C    0.977
    36   1 H    0.999 --    10 C    0.978
    37   1 H    0.999 --    10 C    0.977
    38   1 H    0.999 --    11 C    0.977
    39   1 H    0.999 --    11 C    0.977
    40   1 H    0.999 --    12 C    0.978
    41   1 H    0.999 --    12 C    0.978
    42   1 H    0.999 --    13 C    0.978
    43   1 H    0.999 --    13 C    0.977
    44   1 H    0.999 --    14 C    0.977
    45   1 H    0.999 --    14 C    0.978
    46   1 H    0.999 --    15 C    0.979
    47   1 H    0.999 --    15 C    0.979
    48   1 H    0.999 --    16 C    0.988
    49   1 H    0.999 --    16 C    0.988
    50   1 H    0.999 --    16 C    0.988
 ---------------------------------------------------------------------------

Topologies differ in total number of bonds
Writing topology from bond orders to xtbtopo.mol

molecular dipole:
                 x           y           z       tot (Debye)
 q only:       -0.002      -0.004      -0.001
   full:       -0.002      -0.001      -0.001       0.006
molecular quadrupole (traceless):
                xx          xy          yy          xz          yz          zz
 q only:        0.844      -0.426      -0.118       0.102      -0.085      -0.726
  q+dip:       -3.309       1.285       0.170      -0.674       0.438       3.139
   full:       -1.312       0.467       0.014      -0.279       0.179       1.298

           -------------------------------------------------
          |                Geometry Summary                 |
           -------------------------------------------------

      molecular mass/u    :      226.4417599
   center of mass at/Å    :       -0.0002667      -0.0003053       0.0000567
  moments of inertia/u·Å² :        0.4339994E+03   0.6527238E+04   0.6879513E+04
rotational constants/cm⁻¹ :        0.3884252E-01   0.2582660E-02   0.2450411E-02

 * 49 selected distances

     #   Z          #   Z                                           value/Å
     1   6 C        2   6 C                                       1.5234642
     2   6 C        3   6 C                                       1.5268038
     3   6 C        4   6 C                                       1.5264285
     4   6 C        5   6 C                                       1.5266804
     5   6 C        6   6 C                                       1.5267949
     6   6 C        7   6 C                                       1.5269629
     7   6 C        8   6 C                                       1.5290378 (max)
     8   6 C        9   6 C                                       1.5270933
     9   6 C       10   6 C                                       1.5267102
    10   6 C       11   6 C                                       1.5266280
    11   6 C       12   6 C                                       1.5264320
    12   6 C       13   6 C                                       1.5266560
    13   6 C       14   6 C                                       1.5264189
    14   6 C       15   6 C                                       1.5267021
    15   6 C       16   6 C                                       1.5235187
     1   6 C       17   1 H                                       1.0879771
     1   6 C       18   1 H                                       1.0879833
     1   6 C       19   1 H                                       1.0876687
     2   6 C       20   1 H                                       1.0926446
     2   6 C       21   1 H                                       1.0926089
     3   6 C       22   1 H                                       1.0927750
     3   6 C       23   1 H                                       1.0927927
     4   6 C       24   1 H                                       1.0928546
     4   6 C       25   1 H                                       1.0929249
     5   6 C       26   1 H                                       1.0928205
     5   6 C       27   1 H                                       1.0927985
     6   6 C       28   1 H                                       1.0927992
     6   6 C       29   1 H                                       1.0912532
     7   6 C       30   1 H                                       1.0931341
     7   6 C       31   1 H                                       1.0927447
     8   6 C       32   1 H                                       1.0926868
     8   6 C       33   1 H                                       1.0931566
     9   6 C       34   1 H                                       1.0912882
     9   6 C       35   1 H                                       1.0927958
    10   6 C       36   1 H                                       1.0927705
    10   6 C       37   1 H                                       1.0928171
    11   6 C       38   1 H                                       1.0928306
    11   6 C       39   1 H                                       1.0928074
    12   6 C       40   1 H                                       1.0927612
    12   6 C       41   1 H                                       1.0927582
    13   6 C       42   1 H                                       1.0928460
    13   6 C       43   1 H                                       1.0928573
    14   6 C       44   1 H                                       1.0927938
    14   6 C       45   1 H                                       1.0928017
    15   6 C       46   1 H                                       1.0926168
    15   6 C       47   1 H                                       1.0925952
    16   6 C       48   1 H                                       1.0876436 (min)
    16   6 C       49   1 H                                       1.0879903
    16   6 C       50   1 H                                       1.0879905

 * 2 distinct bonds (by element types)

   Z      Z             #   av. dist./Å        max./Å        min./Å
   1 H    6 C          34     1.0918408     1.0931566     1.0876436
   6 C    6 C          15     1.5264221     1.5290378     1.5234642

           -------------------------------------------------
          |               Frequency Printout                |
           -------------------------------------------------
 projected vibrational frequencies (cm⁻¹)
eigval :       -0.00    -0.00    -0.00    -0.00     0.00     0.00
eigval :       15.73    21.29    29.28    38.38    46.26    64.33
eigval :       70.06    80.42    86.54   103.15   113.38   124.45
eigval :      139.55   142.57   148.06   151.30   196.11   211.76
eigval :      233.95   234.11   248.47   278.83   331.38   370.39
eigval :      395.63   466.67   470.30   480.75   536.12   766.23
eigval :      769.27   770.48   774.49   781.97   799.00   810.83
eigval :      847.85   863.31   906.72   929.27   940.57   941.03
eigval :      961.63   982.26  1001.94  1022.41  1032.55  1043.42
eigval :     1052.38  1065.02  1076.91  1085.78  1101.46  1104.41
eigval :     1107.56  1109.60  1113.18  1117.50  1129.28  1132.46
eigval :     1141.44  1173.69  1202.61  1207.12  1224.32  1227.55
eigval :     1238.19  1243.00  1257.42  1262.61  1270.79  1274.71
eigval :     1277.24  1280.09  1284.50  1290.55  1293.51  1294.66
eigval :     1297.28  1299.86  1305.18  1330.38  1334.08  1359.22
eigval :     1362.78  1375.04  1377.88  1378.96  1379.45  1380.76
eigval :     1416.49  1416.51  1491.28  1491.48  1495.64  1495.84
eigval :     1496.75  1496.78  1498.08  1498.85  1500.09  1501.06
eigval :     1501.97  1502.37  1504.25  1504.97  1505.03  1505.86
eigval :     1508.04  1508.13  2951.97  2952.11  2953.25  2954.72
eigval :     2955.62  2956.49  2957.05  2961.25  2962.29  2966.97
eigval :     2969.16  2971.13  2971.30  2971.89  2972.34  2973.16
eigval :     2973.81  2975.30  2975.83  2976.28  2978.00  2978.65
eigval :     2980.72  2983.54  2984.36  2987.10  2990.84  2996.21
eigval :     3029.57  3029.71  3031.64  3031.76  3037.32  3037.40
 reduced masses (amu)
   1:  9.97   2: 10.03   3: 10.20   4: 10.25   5: 10.22   6:  9.67   7:  9.81   8:  6.74
   9:  5.27  10:  9.12  11:  9.08  12:  6.81  13:  9.18  14:  8.24  15:  6.04  16:  8.60
  17:  6.65  18:  7.91  19:  6.66  20:  7.29  21:  7.48  22:  8.78  23:  9.44  24:  7.92
  25:  2.18  26:  2.17  27:  8.64  28: 10.00  29:  8.78  30:  8.86  31:  9.59  32:  9.29
  33:  9.17  34:  8.89  35:  8.83  36:  1.87  37:  1.60  38:  1.71  39:  1.92  40:  2.08
  41:  2.53  42:  2.56  43:  3.09  44:  3.13  45:  3.41  46:  3.96  47:  5.91  48:  6.04
  49:  4.56  50:  5.31  51:  3.45  52:  2.71  53:  3.83  54: 10.07  55:  9.80  56:  8.68
  57: 10.24  58:  9.42  59:  7.52  60:  7.89  61:  7.84  62:  8.75  63:  8.30  64:  7.50
  65:  7.94  66:  7.62  67:  8.83  68:  6.65  69:  6.49  70:  5.97  71:  4.48  72:  4.17
  73:  3.73  74:  4.23  75:  3.71  76:  3.59  77:  1.53  78:  1.94  79:  2.55  80:  2.98
  81:  2.14  82:  2.71  83:  2.01  84:  2.68  85:  2.34  86:  2.46  87:  2.87  88:  3.82
  89:  3.88  90:  4.39  91:  4.55  92:  4.97  93:  5.45  94:  5.63  95:  5.81  96:  5.50
  97:  3.19  98:  3.19  99:  1.91 100:  1.92 101:  1.93 102:  1.92 103:  1.93 104:  1.91
 105:  1.96 106:  1.90 107:  1.99 108:  1.88 109:  1.99 110:  2.05 111:  1.78 112:  1.53
 113:  1.53 114:  1.76 115:  1.65 116:  1.65 117:  1.88 118:  1.89 119:  1.91 120:  1.90
 121:  1.90 122:  1.95 123:  1.95 124:  1.98 125:  1.97 126:  1.93 127:  1.80 128:  1.54
 129:  1.62 130:  1.50 131:  1.62 132:  1.53 133:  1.49 134:  1.60 135:  1.55 136:  1.71
 137:  1.75 138:  1.69 139:  1.55 140:  1.85 141:  1.63 142:  1.55 143:  1.53 144:  1.62
 145:  1.96 146:  1.96 147:  1.93 148:  1.93 149:  1.26 150:  1.26
 IR intensities (km·mol⁻¹)
   1:  0.00   2:  0.00   3:  0.00   4:  0.00   5:  0.00   6:  0.00   7:  0.00   8:  0.00
   9:  0.00  10:  0.00  11:  0.00  12:  0.00  13:  0.03  14:  0.02  15:  0.00  16:  0.02
  17:  0.00  18:  0.00  19:  0.00  20:  0.00  21:  0.00  22:  0.01  23:  0.01  24:  0.01
  25:  0.00  26:  0.00  27:  0.16  28:  0.02  29:  0.21  30:  0.08  31:  0.13  32:  0.03
  33:  0.08  34:  0.21  35:  0.26  36: 14.56  37: 11.73  38:  8.04  39:  0.10  40:  2.77
  41:  1.81  42:  1.10  43:  1.21  44:  0.83  45:  0.36  46:  0.90  47:  3.05  48:  4.30
  49:  0.11  50:  0.17  51:  0.25  52:  0.02  53:  0.23  54:  0.06  55:  0.19  56:  0.73
  57:  0.37  58:  0.77  59:  1.30  60:  0.74  61:  0.38  62:  0.03  63:  0.24  64:  2.58
  65:  1.06  66:  3.46  67:  0.72  68:  0.26  69:  0.18  70:  0.06  71:  0.29  72:  0.64
  73:  0.60  74:  0.23  75:  0.19  76:  0.17  77:  0.10  78:  0.08  79:  0.04  80:  0.27
  81:  0.16  82:  0.03  83:  0.07  84:  0.01  85:  0.01  86:  0.04  87:  0.59  88:  0.71
  89:  0.13  90:  0.95  91:  0.03  92:  0.47  93:  1.59  94:  0.44  95:  0.06  96:  0.21
  97:  0.26  98:  1.38  99:  0.31 100:  0.15 101:  0.01 102:  0.08 103:  0.01 104:  0.08
 105:  0.04 106:  0.17 107:  0.02 108:  0.14 109:  0.30 110:  0.25 111:  0.00 112:  2.27
 113:  2.34 114:  0.02 115:  1.30 116:  1.05 117:  0.03 118:  0.03 119:  0.84 120:  7.78
 121:  9.59 122:  1.47 123:  2.10 124:  0.43 125:  1.59 126:  5.37 127:  1.00 128:  0.65
 129:  1.03 130:  2.33 131:  0.86 132:  5.53 133:  1.77 134: 33.55 135: 14.21 136: 66.62
 137:108.03 138: 45.64 139:  9.66 140:219.43 141:117.83 142: 65.70 143:256.74 144:238.65
 145: 60.63 146: 62.18 147: 59.80 148: 64.99 149: 53.41 150: 13.46
 Raman intensities (amu)
   1:  0.00   2:  0.00   3:  0.00   4:  0.00   5:  0.00   6:  0.00   7:  0.00   8:  0.00
   9:  0.00  10:  0.00  11:  0.00  12:  0.00  13:  0.00  14:  0.00  15:  0.00  16:  0.00
  17:  0.00  18:  0.00  19:  0.00  20:  0.00  21:  0.00  22:  0.00  23:  0.00  24:  0.00
  25:  0.00  26:  0.00  27:  0.00  28:  0.00  29:  0.00  30:  0.00  31:  0.00  32:  0.00
  33:  0.00  34:  0.00  35:  0.00  36:  0.00  37:  0.00  38:  0.00  39:  0.00  40:  0.00
  41:  0.00  42:  0.00  43:  0.00  44:  0.00  45:  0.00  46:  0.00  47:  0.00  48:  0.00
  49:  0.00  50:  0.00  51:  0.00  52:  0.00  53:  0.00  54:  0.00  55:  0.00  56:  0.00
  57:  0.00  58:  0.00  59:  0.00  60:  0.00  61:  0.00  62:  0.00  63:  0.00  64:  0.00
  65:  0.00  66:  0.00  67:  0.00  68:  0.00  69:  0.00  70:  0.00  71:  0.00  72:  0.00
  73:  0.00  74:  0.00  75:  0.00  76:  0.00  77:  0.00  78:  0.00  79:  0.00  80:  0.00
  81:  0.00  82:  0.00  83:  0.00  84:  0.00  85:  0.00  86:  0.00  87:  0.00  88:  0.00
  89:  0.00  90:  0.00  91:  0.00  92:  0.00  93:  0.00  94:  0.00  95:  0.00  96:  0.00
  97:  0.00  98:  0.00  99:  0.00 100:  0.00 101:  0.00 102:  0.00 103:  0.00 104:  0.00
 105:  0.00 106:  0.00 107:  0.00 108:  0.00 109:  0.00 110:  0.00 111:  0.00 112:  0.00
 113:  0.00 114:  0.00 115:  0.00 116:  0.00 117:  0.00 118:  0.00 119:  0.00 120:  0.00
 121:  0.00 122:  0.00 123:  0.00 124:  0.00 125:  0.00 126:  0.00 127:  0.00 128:  0.00
 129:  0.00 130:  0.00 131:  0.00 132:  0.00 133:  0.00 134:  0.00 135:  0.00 136:  0.00
 137:  0.00 138:  0.00 139:  0.00 140:  0.00 141:  0.00 142:  0.00 143:  0.00 144:  0.00
 145:  0.00 146:  0.00 147:  0.00 148:  0.00 149:  0.00 150:  0.00
 output can be read by thermo (or use thermo option).
 writing <g98.out> molden fake output.
 recommended (thermochemical) frequency scaling factor: 1.0
           -------------------------------------------------
          |             Thermodynamic Functions             |
           -------------------------------------------------

Molecule has no symmetry elements
It seems to be the C1 point group
c1  symmetry found (for desy threshold:  0.10E+00) used in thermo

          ...................................................
          :                      SETUP                      :
          :.................................................:
          :  # frequencies                         144      :
          :  # imaginary freq.                       0      :
          :  linear?                             false      :
          :  only rotor calc.                    false      :
          :  symmetry                               c1      :
          :  rotational number                       1      :
          :  scaling factor                  1.0000000      :
          :  rotor cutoff                   50.0000000 cm⁻¹ :
          :  imag. cutoff                  -20.0000000 cm⁻¹ :
          :.................................................:

    mode    ω/cm⁻¹     T·S(HO)/kcal·mol⁻¹    T·S(FR)/kcal·mol⁻¹   T·S(vib)
   ------------------------------------------------------------------------
       1     15.73    -2.12009 (  0.97%)    -1.39902 ( 99.03%)    -1.40602
       2     21.29    -1.94106 (  3.18%)    -1.30947 ( 96.82%)    -1.32956
       3     29.28    -1.75247 ( 10.52%)    -1.21507 ( 89.48%)    -1.27160
       4     38.38    -1.59244 ( 25.77%)    -1.13488 ( 74.23%)    -1.25278
       5     46.26    -1.48218 ( 42.28%)    -1.07957 ( 57.72%)    -1.24981
       6     64.33    -1.28792 ( 73.26%)    -0.98188 ( 26.74%)    -1.20610
       7     70.06    -1.23784 ( 79.40%)    -0.95661 ( 20.60%)    -1.17991
       8     80.42    -1.15698 ( 87.00%)    -0.91574 ( 13.00%)    -1.12562
       9     86.54    -1.11415 ( 89.97%)    -0.89404 ( 10.03%)    -1.09208
      10    103.15    -1.01188 ( 94.77%)    -0.84201 (  5.23%)    -1.00300
      11    113.38    -0.95713 ( 96.36%)    -0.81401 (  3.64%)    -0.95192
      12    124.45    -0.90341 ( 97.46%)    -0.78640 (  2.54%)    -0.90044
      13    139.55    -0.83782 ( 98.38%)    -0.75249 (  1.62%)    -0.83644
      14    142.57    -0.82562 ( 98.51%)    -0.74615 (  1.49%)    -0.82444
      15    148.06    -0.80410 ( 98.72%)    -0.73494 (  1.28%)    -0.80321
      16    151.30    -0.79184 ( 98.82%)    -0.72854 (  1.18%)    -0.79109
      17    196.11    -0.64676 ( 99.58%)    -0.65168 (  0.42%)    -0.64678
      18    211.76    -0.60479 ( 99.69%)    -0.62894 (  0.31%)    -0.60486
      19    233.95    -0.55110 ( 99.79%)    -0.59941 (  0.21%)    -0.55120
      20    234.11    -0.55074 ( 99.79%)    -0.59921 (  0.21%)    -0.55084
      21    248.47    -0.51919 ( 99.84%)    -0.58158 (  0.16%)    -0.51929
      22    278.83    -0.45941 ( 99.90%)    -0.54744 (  0.10%)    -0.45950
   ------------------------------------------------------------------------

   temp. (K)  partition function   enthalpy   heat capacity  entropy
                                   cal/mol     cal/K/mol   cal/K/mol   J/K/mol
 298.15  VIB  0.339E+11            12034.788     66.297     79.858
         ROT  0.107E+08              888.752      2.981     35.140
         INT  0.362E+18            12923.541     69.278    114.997
         TR   0.330E+28             1481.254      4.968     42.135
         TOT                       14404.7945    74.2465   157.1323   657.4417

       T/K    H(0)-H(T)+PV         H(T)/Eh          T*S/Eh         G(T)/Eh
   ------------------------------------------------------------------------
    298.15    0.229555E-01    0.491832E+00    0.746586E-01    0.417174E+00
   ------------------------------------------------------------------------

         :::::::::::::::::::::::::::::::::::::::::::::::::::::
         ::                  THERMODYNAMIC                  ::
         :::::::::::::::::::::::::::::::::::::::::::::::::::::
         :: total free energy         -51.219851417474 Eh   ::
         ::.................................................::
         :: total energy              -51.637024958354 Eh   ::
         :: zero point energy           0.468876687535 Eh   ::
         :: G(RRHO) w/o ZPVE           -0.051703146654 Eh   ::
         :: G(RRHO) contrib.            0.417173540881 Eh   ::
         :::::::::::::::::::::::::::::::::::::::::::::::::::::
 
 normal mode %tage of torsion character
   1:  0.00   2:  0.00   3:  0.00   4:  0.00   5:  0.00   6:  0.00   7:  0.25   8:  0.51
   9:  0.62  10:  0.35  11:  0.49  12:  0.56  13:  0.38  14:  0.49  15:  0.64  16:  0.51
  17:  0.66  18:  0.63  19:  0.70  20:  0.69  21:  0.68  22:  0.54  23:  0.33  24:  0.55
  25:  0.89  26:  0.88  27:  0.36  28:  0.04  29:  0.21  30:  0.14  31:  0.07  32:  0.06
  33:  0.05  34:  0.07  35:  0.06  36:  0.53  37:  0.58  38:  0.53  39:  0.47  40:  0.46
  41:  0.49  42:  0.49  43:  0.56  44:  0.54  45:  0.58  46:  0.48  47:  0.14  48:  0.09
  49:  0.47  50:  0.40  51:  0.44  52:  0.39  53:  0.20  54:  0.07  55:  0.06  56:  0.10
  57:  0.05  58:  0.05  59:  0.08  60:  0.04  61:  0.03  62:  0.03  63:  0.05  64:  0.12
  65:  0.08  66:  0.07  67:  0.09  68:  0.44  69:  0.59  70:  0.54  71:  0.44  72:  0.34
  73:  0.19  74:  0.35  75:  0.32  76:  0.16  77:  0.13  78:  0.23  79:  0.18  80:  0.16
  81:  0.14  82:  0.09  83:  0.12  84:  0.13  85:  0.09  86:  0.07  87:  0.06  88:  0.07
  89:  0.07  90:  0.06  91:  0.07  92:  0.06  93:  0.06  94:  0.06  95:  0.05  96:  0.06
  97:  0.00  98:  0.00  99:  0.65 100:  0.62 101:  0.63 102:  0.65 103:  0.64 104:  0.65
 105:  0.61 106:  0.64 107:  0.63 108:  0.61 109:  0.61 110:  0.62 111:  0.58 112:  0.93
 113:  0.92 114:  0.58 115:  0.88 116:  0.81 117:  0.35 118:  0.37 119:  0.34 120:  0.32
 121:  0.33 122:  0.35 123:  0.26 124:  0.17 125:  0.23 126:  0.05 127:  0.05 128:  0.01
 129:  0.01 130:  0.01 131:  0.01 132:  0.01 133:  0.01 134:  0.01 135:  0.01 136:  0.01
 137:  0.01 138:  0.01 139:  0.01 140:  0.01 141:  0.02 142:  0.01 143:  0.01 144:  0.02
 145:  0.05 146:  0.08 147:  0.03 148:  0.04 149:  0.00 150:  0.00
 recommended # of modes for mode following           4

optimized geometry written to: xtbopt.xyz


           -------------------------------------------------
          | TOTAL ENERGY              -51.637024958354 Eh   |
          | TOTAL ENTHALPY            -51.145192769630 Eh   |
          | TOTAL FREE ENERGY         -51.219851417474 Eh   |
          | GRADIENT NORM               0.000539534019 Eh/α |
          | HOMO-LUMO GAP              12.115639953426 eV   |
           -------------------------------------------------

------------------------------------------------------------------------
 * finished run on 2024/04/23 at 12:10:52.369     
------------------------------------------------------------------------
 total:
 * wall-time:     0 d,  0 h,  0 min,  2.666 sec
 *  cpu-time:     0 d,  0 h,  0 min, 10.314 sec
 * ratio c/w:     3.869 speedup
 SCF:
 * wall-time:     0 d,  0 h,  0 min,  0.041 sec
 *  cpu-time:     0 d,  0 h,  0 min,  0.141 sec
 * ratio c/w:     3.436 speedup
 ANC optimizer:
 * wall-time:     0 d,  0 h,  0 min,  0.157 sec
 *  cpu-time:     0 d,  0 h,  0 min,  0.598 sec
 * ratio c/w:     3.803 speedup
 analytical hessian:
 * wall-time:     0 d,  0 h,  0 min,  2.356 sec
 *  cpu-time:     0 d,  0 h,  0 min,  9.239 sec
 * ratio c/w:     3.922 speedup

