50
 energy: -51.633732492052 gnorm: 0.035475475116 xtb: 6.6.1 (8d0f1dd)
C            7.53878900000000       -3.91207300000000        2.25449800000000
C            6.13998700000000       -3.33224500000000        2.39536400000000
C            5.89153400000000       -2.15209700000000        1.45492800000000
C            4.48393100000000       -1.57008900000000        1.58388800000000
C            4.24477900000000       -0.37614600000000        0.65997500000000
C            2.82962600000000        0.19113600000000        0.77170100000000
C            2.59698900000000        1.39311300000000       -0.14413000000000
C            1.19651900000000        1.99926700000000       -0.01714000000000
C            0.08200700000000        1.07006200000000       -0.49980900000000
C           -1.30029600000000        1.72010600000000       -0.44341500000000
C           -2.41731900000000        0.79199200000000       -0.92030100000000
C           -3.79511600000000        1.45274600000000       -0.88592600000000
C           -4.91712800000000        0.52379100000000       -1.34916200000000
C           -6.29021800000000        1.19552900000000       -1.33332500000000
C           -7.41833800000000        0.26647400000000       -1.78391400000000
C           -8.77812700000000        0.94732100000000       -1.77639400000000
H            8.30154200000000       -3.16029800000000        2.46807300000000
H            7.71733000000000       -4.27092400000000        1.23863600000000
H            7.70637200000000       -4.75185700000000        2.93342400000000
H            5.38717500000000       -4.11003000000000        2.20824700000000
H            5.96509000000000       -3.01287700000000        3.43180600000000
H            6.63380200000000       -1.36687000000000        1.64538800000000
H            6.06787900000000       -2.46364300000000        0.41776000000000
H            4.30114800000000       -1.27309700000000        2.62417800000000
H            3.74174400000000       -2.35121500000000        1.37681800000000
H            4.44331500000000       -0.66824800000000       -0.37889400000000
H            4.97682600000000        0.41142400000000        0.87853000000000
H            2.62752900000000        0.47607000000000        1.81180000000000
H            2.10345900000000       -0.59896800000000        0.54638200000000
H            3.35688400000000        2.15640900000000        0.07043400000000
H            2.77528100000000        1.09789600000000       -1.18563100000000
H            1.01100700000000        2.28078500000000        1.02693900000000
H            1.14369500000000        2.94054200000000       -0.58049700000000
H            0.07535200000000        0.14957900000000        0.09602900000000
H            0.29341600000000        0.74417000000000       -1.52594400000000
H           -1.50974400000000        2.05341900000000        0.58077200000000
H           -1.30107300000000        2.63687000000000       -1.04626800000000
H           -2.42830900000000       -0.11784600000000       -0.30716900000000
H           -2.19987100000000        0.44595600000000       -1.93856900000000
H           -4.00773200000000        1.80927200000000        0.12973400000000
H           -3.78515000000000        2.35664100000000       -1.50785100000000
H           -4.93735800000000       -0.37349800000000       -0.71804900000000
H           -4.69815300000000        0.15591100000000       -2.35939000000000
H           -6.27078700000000        2.08764200000000       -1.97183700000000
H           -6.50419000000000        1.57278100000000       -0.32544300000000
H           -7.19296700000000       -0.11773400000000       -2.78807100000000
H           -7.43606500000000       -0.62216700000000       -1.13838200000000
H           -9.57725400000000        0.27424700000000       -2.09670200000000
H           -8.79068900000000        1.81206600000000       -2.44314800000000
H           -9.03366300000000        1.30832000000000       -0.77792000000000
50
 energy: -51.636423701104 gnorm: 0.016353067144 xtb: 6.6.1 (8d0f1dd)
C            7.53329667926349       -3.90385702380336        2.24976734197336
C            6.13306770266507       -3.32663375652041        2.39358092869687
C            5.89060985129189       -2.14733342495077        1.45186845498331
C            4.48241228067041       -1.56886561858040        1.58405551701489
C            4.24618188113170       -0.37518878119880        0.65907108037903
C            2.82906158483345        0.18555461970772        0.77494878835731
C            2.59219475054127        1.38357012786887       -0.14438493448481
C            1.19278194679649        1.98989996698798       -0.01379846105225
C            0.07721960251079        1.06505463708561       -0.50122356591619
C           -1.30180312564386        1.72186419266141       -0.44384236266269
C           -2.41747573579800        0.79168309248458       -0.92084756890515
C           -3.79429668554421        1.45480775445020       -0.88533642614725
C           -4.91424873800479        0.52339800726562       -1.34903100981613
C           -6.28520883414790        1.19870377625726       -1.33159586825413
C           -7.40883529889533        0.26580281267269       -1.78283368809569
C           -8.76757003360824        0.95028122586758       -1.77386552160428
H            8.28921275905587       -3.14992002221493        2.46889319438385
H            7.70324717664188       -4.26395395131488        1.23521741690975
H            7.68565269744071       -4.73977987334000        2.93221389341831
H            5.39241154483845       -4.10858204841427        2.19265319146120
H            5.97563929891425       -3.00148304015974        3.42793144654820
H            6.62662500042284       -1.36308533932592        1.65865613863513
H            6.05492519696512       -2.47072444835913        0.41843433278864
H            4.31265797275152       -1.26218877441063        2.62176424181883
H            3.74810927474471       -2.35079941762228        1.36219259206366
H            4.43169019904201       -0.67777952316518       -0.37714998740416
H            4.97017729486837        0.41299054224983        0.89217790113801
H            2.63953846858321        0.48333313481128        1.81178826281965
H            2.11363772029941       -0.60625763328272        0.53514505914705
H            3.33769404633260        2.15366569560500        0.08419988677019
H            2.76084793908572        1.08291553326702       -1.18389196006515
H            1.01051901515814        2.26067102542009        1.03159710980597
H            1.15309722310373        2.92099556287263       -0.59045853148368
H            0.06376087579273        0.15618425859556        0.10717540605638
H            0.28930542868032        0.75665589762446       -1.53054719956279
H           -1.50932655558693        2.03883846424113        0.58383418089151
H           -1.29806936105019        2.62824398728354       -1.05882407188387
H           -2.43202406085202       -0.10738383013099       -0.29543365544329
H           -2.20125927668622        0.46149355869441       -1.94253158261956
H           -4.00601992392487        1.79492916878890        0.13401006453807
H           -3.78133068422664        2.34775634091318       -1.51940971995347
H           -4.93866379336361       -0.36304675409598       -0.70614386115460
H           -4.69714773905350        0.17149535535475       -2.36329348478309
H           -6.26432429420207        2.07916843984850       -1.98271201184744
H           -6.50011278991095        1.55889879370482       -0.31982326813506
H           -7.19097568799958       -0.10178034112242       -2.79169006448233
H           -7.43638609762021       -0.61120841567070       -1.12675836602655
H           -9.55382643489491        0.26751654035489       -2.09533952700894
H           -8.77469269280819        1.80937414383684       -2.44450625777189
H           -9.01851756860391        1.30372036090716       -0.77388047403474
50
 energy: -51.636909009823 gnorm: 0.002441169039 xtb: 6.6.1 (8d0f1dd)
C            7.52880165376484       -3.89746829626616        2.24628565287162
C            6.12629345954949       -3.32085330139730        2.39172499132520
C            5.88879142774961       -2.14206149217979        1.44906161079769
C            4.47986221961413       -1.56664852549566        1.58397937403797
C            4.24601367665617       -0.37351953868688        0.65762440410560
C            2.82595667381814        0.17912921719197        0.77770458689876
C            2.58741706358519        1.37489295479586       -0.14409678882562
C            1.18790150722113        1.98140539578159       -0.01188698165423
C            0.07226694446729        1.05784488868131       -0.50194761789691
C           -1.30304858203052        1.72322367192738       -0.44399549637743
C           -2.41718832289585        0.79089800974640       -0.92163634395608
C           -3.79219780410255        1.45833416535112       -0.88427306815552
C           -4.90907364004400        0.52319105383443       -1.34861377298337
C           -6.27854921369622        1.20137125387787       -1.32977028084074
C           -7.39852728559207        0.26519129472551       -1.78166640615589
C           -8.75839229616843        0.95214046292110       -1.77183976479181
H            8.27967407024523       -3.14148914794962        2.46713330277033
H            7.69346826824503       -4.25595668888743        1.23215642056401
H            7.67261777522727       -4.73127789713689        2.93041845497490
H            5.39186259318083       -4.10309614584023        2.18384729287670
H            5.97667983927438       -2.99317940854429        3.42355850489763
H            6.62108890377135       -1.35941576771559        1.66337959409078
H            6.04766463425264       -2.47025006790975        0.41862126404202
H            4.31645281177621       -1.25605161456175        2.61927104612356
H            3.75053337785047       -2.34831747107680        1.35549099438219
H            4.42571840235044       -0.68050004655530       -0.37600846864964
H            4.96471445586207        0.41454257737829        0.89740294851287
H            2.64408979834451        0.48352025334326        1.81171358819802
H            2.11858375740692       -0.61544757228768        0.53399512651669
H            3.32425683154970        2.14873385448881        0.08959082159373
H            2.75025193325974        1.07035846319245       -1.18116221350588
H            1.00753087845711        2.24498482334928        1.03342298101691
H            1.15633967882908        2.90718689575433       -0.59348523808058
H            0.05209678455667        0.15447948303878        0.11025427569876
H            0.28412880842807        0.75928914993233       -1.53193278858336
H           -1.50926103780771        2.03282593912496        0.58387782245577
H           -1.29620770627105        2.62336718041788       -1.06435137875359
H           -2.43369889748281       -0.10185685387958       -0.29098137230873
H           -2.20220141089908        0.46843959165496       -1.94376233255122
H           -4.00345898546635        1.79008759744866        0.13561461232606
H           -3.77826169331904        2.34501092808893       -1.52337227437570
H           -4.93552853520030       -0.35711896724267       -0.70103517112218
H           -4.69341110433684        0.17925062403360       -2.36360896867114
H           -6.25744442117093        2.07549218033501       -1.98571603571582
H           -6.49388403445123        1.55315336182846       -0.31749625506511
H           -7.18389256512099       -0.09372928336012       -2.79140491180877
H           -7.42998309986502       -0.60519205539419       -1.12146769613526
H           -9.53730485477223        0.26402800401272       -2.09403239526014
H           -8.76106751414655        1.80857422647688       -2.44313628843784
H           -9.00501522445389        1.30209763963354       -0.77142636041517
50
 energy: -51.636960764224 gnorm: 0.001726987523 xtb: 6.6.1 (8d0f1dd)
C            7.52661980084571       -3.89478777635170        2.24505336699603
C            6.12336877196020       -3.31808370919666        2.39072915876476
C            5.88773387688988       -2.13936939655376        1.44793923681308
C            4.47858773761583       -1.56534888033972        1.58369924865641
C            4.24464492970200       -0.37278157990303        0.65717095234461
C            2.82362179256006        0.17641442531288        0.77889713343914
C            2.58462197004939        1.37065166693069       -0.14423546922145
C            1.18517774718437        1.97724213510024       -0.01101253669647
C            0.07021453771861        1.05409411724703       -0.50239431549512
C           -1.30313130452756        1.72296938880176       -0.44423752208438
C           -2.41700102580865        0.79091954773347       -0.92182493403217
C           -3.79070701403044        1.46005260800728       -0.88374579800016
C           -4.90611385915476        0.52382771350817       -1.34819139905256
C           -6.27503188914811        1.20251996622512       -1.32887997929456
C           -7.39336830700754        0.26498721641276       -1.78109539844122
C           -8.75385105548569        0.95237168402889       -1.77100228463006
H            8.27617206138378       -3.13789621417968        2.46580188251442
H            7.69014359241623       -4.25191538990644        1.23057554413949
H            7.66971657354507       -4.72844978411396        2.92896116833985
H            5.38917024154685       -4.09948857960617        2.18177921120310
H            5.97373397690000       -2.99014825039942        3.42188933988534
H            6.61920100777725       -1.35678587930677        1.66279495804077
H            6.04621856437750       -2.46707161865095        0.41781767536508
H            4.31545217309915       -1.25447915318015        2.61840047036885
H            3.74996148910326       -2.34686396136586        1.35498838253494
H            4.42431807227915       -0.67943842314546       -0.37600313399865
H            4.96165622387168        0.41594133513609        0.89731086823078
H            2.64289704511547        0.48122500088570        1.81240781095368
H            2.11863175224020       -0.62007611630877        0.53662404349963
H            3.32069514161354        2.14457145481613        0.08866731841287
H            2.74615367035220        1.06444861243441       -1.18052214007710
H            1.00466431204059        2.23880985525561        1.03427923928379
H            1.15393621112084        2.90261435155545       -0.59208563846806
H            0.04693767805107        0.15093684994801        0.10915373826000
H            0.28142347673797        0.75633993450277       -1.53216816159983
H           -1.50912904663889        2.03276343930948        0.58303696552363
H           -1.29495631386145        2.62202070170040       -1.06515987164729
H           -2.43406788328871       -0.10108829392766       -0.29110698658239
H           -2.20257378172112        0.46900273718320       -1.94364783789275
H           -4.00162537096176        1.79113912488241        0.13583259288812
H           -3.77660612375185        2.34603370418676       -1.52286542585134
H           -4.93203007798106       -0.35577269534798       -0.70052717237719
H           -4.69015540028083        0.18060711612410       -2.36279576269323
H           -6.25362470115517        2.07614688452670       -1.98463158461524
H           -6.48988468567444        1.55356259154239       -0.31679226132998
H           -7.17826571929047       -0.09284597914171       -2.79051734304543
H           -7.42423696955192       -0.60464608879625       -1.12080293023453
H           -9.53196616130618        0.26396036126389       -2.09331457779849
H           -8.75502061212089        1.80879820405797       -2.44183720941438
H           -8.99886712535041        1.30198004110234       -0.77038963188433
50
 energy: -51.637008823109 gnorm: 0.003461675734 xtb: 6.6.1 (8d0f1dd)
C            7.52124163921354       -3.88817826319285        2.24216339252054
C            6.11725205373983       -3.31151016879521        2.38800477782668
C            5.88476011276603       -2.13276140711441        1.44581473949450
C            4.47543000973073       -1.56204750808871        1.58301833433555
C            4.23982918518062       -0.37111989587743        0.65680437751135
C            2.81704658299994        0.17018260666737        0.78118800080854
C            2.57708179364411        1.36040115961138       -0.14493863077879
C            1.17859556476996        1.96678540500828       -0.00902824362372
C            0.06559957279796        1.04486249919642       -0.50311098003598
C           -1.30274580980587        1.72121853378762       -0.44542370238386
C           -2.41650575007681        0.79133502395386       -0.92220958009124
C           -3.78649686304965        1.46423463150208       -0.88247213853368
C           -4.89860787218246        0.52647122662775       -1.34687363671261
C           -6.26633653923853        1.20497589521727       -1.32676390060281
C           -7.38105500217636        0.26503316063455       -1.77969454757554
C           -8.74231681794653        0.95230043764679       -1.76897841440512
H            8.26861659971930       -3.12939268996900        2.46272700358966
H            7.68316445473728       -4.24206294313787        1.22651683667658
H            7.66516710956758       -4.72226803901581        2.92465631417091
H            5.38187865336839       -4.09083021997600        2.17744039137443
H            5.96541201926871       -2.98355198593222        3.41842510989821
H            6.61486734756171       -1.34945745380152        1.66088323106817
H            6.04371737231134       -2.45781599348767        0.41530284332649
H            4.31153420854491       -1.25121837234105        2.61717414169121
H            3.74755541239953       -2.34394396478988        1.35520538318235
H            4.42069728541915       -0.67579799882217       -0.37630828491341
H            4.95327296599187        0.42033109972889        0.89647856435436
H            2.63723005854274        0.47532746195649        1.81427439732117
H            2.11604174473805       -0.63101696909205        0.54378401065732
H            3.31451485323178        2.13345520779614        0.08319543235366
H            2.73517579016517        1.04952765633438       -1.17995177224016
H            0.99734144162981        2.22356101704019        1.03688659925155
H            1.14519340849922        2.89343121442564       -0.58661773413015
H            0.03564315646317        0.14057402015118        0.10604703109132
H            0.27560631919388        0.74679803808372       -1.53254487997749
H           -1.50820862074911        2.03375313406533        0.58063513915017
H           -1.29092510210668        2.61902016880243       -1.06720360204271
H           -2.43499917184239       -0.10056291432847       -0.29219783889493
H           -2.20346775846533        0.46882756095508       -1.94364312679919
H           -3.99652377170553        1.79570004899798        0.13667338913237
H           -3.77186981196863        2.35020527820986       -1.52082810489757
H           -4.92238961360443       -0.35308024694017       -0.69979200052093
H           -4.68128849357457        0.18334522447606       -2.36075780011908
H           -6.24427116132597        2.07919939468795       -1.98107312377940
H           -6.47995996753465        1.55590362697675       -0.31478387879571
H           -7.16352644293757       -0.09188888960194       -2.78848075216290
H           -7.40901188274782       -0.60464999457316       -1.12000716508565
H           -9.52064865300127        0.26496162679945       -2.09147979885857
H           -8.74067138206519        1.80953948837609       -2.43842246277698
H           -8.98418022809095        1.30150907116059       -0.76769034004886
50
 energy: -51.637018150435 gnorm: 0.001594423027 xtb: 6.6.1 (8d0f1dd)
C            7.52138253621806       -3.88794788358691        2.24201629223890
C            6.11785067236929       -3.31168002460913        2.38790349838136
C            5.88459244553159       -2.13269460012643        1.44625627233935
C            4.47531011917609       -1.56211522069164        1.58326149271846
C            4.23912422589357       -0.37132039865893        0.65724825658423
C            2.81664748935601        0.17040703762048        0.78085988919429
C            2.57674265516081        1.36039128334506       -0.14544548743433
C            1.17881235397935        1.96671712891171       -0.00885457720970
C            0.06592725461051        1.04487154325464       -0.50290640767075
C           -1.30240303023958        1.72068521287224       -0.44574036732185
C           -2.41646556555654        0.79142046133670       -0.92225240469769
C           -3.78628383060327        1.46426007217994       -0.88254515588757
C           -4.89865422579740        0.52699496002632       -1.34680771806637
C           -6.26646578210507        1.20491721473795       -1.32676665767390
C           -7.38131553255908        0.26528372660311       -1.77974077421634
C           -8.74211854713841        0.95213347531678       -1.76891787765461
H            8.26917101722603       -3.12944005592209        2.46289025968463
H            7.68382659421746       -4.24195293837459        1.22633306396827
H            7.66598555662933       -4.72236936002902        2.92420585180125
H            5.38222190670422       -4.09123063112325        2.17740600104757
H            5.96563131046954       -2.98408567084379        3.41872762765762
H            6.61480517313583       -1.34910360455842        1.66144426087104
H            6.04395514960246       -2.45740788031092        0.41537541151530
H            4.31117012136195       -1.25141432375746        2.61774954641013
H            3.74735088334161       -2.34444789594445        1.35566764764595
H            4.42026867520885       -0.67581791611220       -0.37620630327895
H            4.95261943278982        0.42055700498766        0.89678820583324
H            2.63605416571667        0.47583017116728        1.81408752078339
H            2.11493265526267       -0.63050499433371        0.54337473417591
H            3.31530488974462        2.13316905778133        0.08154525295459
H            2.73419443459222        1.04909760616578       -1.18071315402423
H            0.99769133126239        2.22318336308472        1.03744783622398
H            1.14450708768244        2.89420877741623       -0.58569286344017
H            0.03651052996648        0.14037581132583        0.10646009817909
H            0.27643233068904        0.74619439952427       -1.53242330313155
H           -1.50785103792679        2.03388408148332        0.58046758395122
H           -1.29029069666432        2.61875028398535       -1.06770521849957
H           -2.43511079648834       -0.10091178869504       -0.29226810455864
H           -2.20353639177669        0.46843524330349       -1.94391581801121
H           -3.99622123159707        1.79617303951758        0.13683370406678
H           -3.77146792587062        2.35066554518484       -1.52086042049281
H           -4.92225624670151       -0.35300990955890       -0.69979341897600
H           -4.68121805574349        0.18360905855264       -2.36092361540217
H           -6.24460529770521        2.07959590323696       -1.98098622839659
H           -6.48029190096531        1.55601990492999       -0.31455906252123
H           -7.16355552475275       -0.09191169333929       -2.78873493219959
H           -7.40898091776601       -0.60495860682329       -1.12023701090175
H           -9.52101608924899        0.26523680136063       -2.09147017825720
H           -8.74099596919394        1.80960912242270       -2.43830619279889
H           -8.98445840149846        1.30126310576392       -0.76755405550292
50
 energy: -51.637023005337 gnorm: 0.001458875546 xtb: 6.6.1 (8d0f1dd)
C            7.52180908640402       -3.88664917205476        2.24117136615386
C            6.11891559257224       -3.31168724075208        2.38757068215585
C            5.88395564238910       -2.13186044786542        1.44745244162744
C            4.47447127362178       -1.56227478075836        1.58426392093671
C            4.23716290942019       -0.37185969113708        0.65845577461184
C            2.81511979217867        0.17029526806991        0.78015029850450
C            2.57556217094501        1.35945550282030       -0.14716342491141
C            1.17902533675406        1.96592344636053       -0.00812466905745
C            0.06643467167253        1.04414722759974       -0.50231694347101
C           -1.30157481232974        1.71946964706311       -0.44672025737984
C           -2.41629766090478        0.79141176401278       -0.92252262474456
C           -3.78549502449418        1.46478147216564       -0.88271993091070
C           -4.89834612045561        0.52844049769932       -1.34670630615277
C           -6.26628342323089        1.20524352052758       -1.32654085793301
C           -7.38108565854312        0.26590891882997       -1.77984928028956
C           -8.74109096183460        0.95187554410864       -1.76852899529026
H            8.27012973899510       -3.12859419171041        2.46300121294531
H            7.68526636572030       -4.24035850406044        1.22528767094952
H            7.66761848475912       -4.72193949796238        2.92248619207554
H            5.38327014257419       -4.09179523590287        2.17667372652169
H            5.96617256677185       -2.98530547419193        3.41921558612167
H            6.61392546585906       -1.34767943643974        1.66355931603783
H            6.04419727061076       -2.45552823354106        0.41589962788959
H            4.30994996367846       -1.25176409020755        2.61925028893065
H            3.74682332741708       -2.34565941404603        1.35692474872681
H            4.41893725746176       -0.67620424865762       -0.37543982736336
H            4.95036000826481        0.42094091261144        0.89800120095743
H            2.63280540627852        0.47700956766747        1.81324491840472
H            2.11224529374288       -0.63006552922765        0.54240716585414
H            3.31663467450851        2.13152364059119        0.07655708752782
H            2.73040484673676        1.04650937897085       -1.18277009057814
H            0.99868352885659        2.22072949607428        1.03916724069765
H            1.14282044241778        2.89529290344794       -0.58288184488292
H            0.03777644603519        0.13962891405872        0.10779731480843
H            0.27839088982974        0.74433595926332       -1.53176826479787
H           -1.50702755548114        2.03418725169965        0.57955863013855
H           -1.28843844751545        2.61755583056895       -1.06952368911662
H           -2.43549154422175       -0.10146909731289       -0.29240254483943
H           -2.20383928716873        0.46757965845328       -1.94457440546995
H           -3.99507124168771        1.79737081803311        0.13706662118121
H           -3.77008319417517        2.35177736577951       -1.52107145089484
H           -4.92155466144573       -0.35227266911699       -0.69981197557912
H           -4.68083863327805        0.18491973622630       -2.36128719961077
H           -6.24508156500957        2.08068783038954       -1.98052019122834
H           -6.48068024101050        1.55613920734656       -0.31388854504583
H           -7.16295844497879       -0.09125952153062       -2.78930920733689
H           -7.40812777232777       -0.60535608610082       -1.12085242588572
H           -9.52079098582910        0.26563599918404       -2.09138881379867
H           -8.74100280906312        1.80995165109388       -2.43753803369429
H           -8.98424855149054        1.30046863185915       -0.76691823349542
50
 energy: -51.637024958285 gnorm: 0.000538152693 xtb: 6.6.1 (8d0f1dd)
C            7.52215862284177       -3.88627174508459        2.24089116732815
C            6.11888060367689       -3.31161551106276        2.38760041555474
C            5.88387924822819       -2.13153574287609        1.44775181114552
C            4.47416234266277       -1.56238029319519        1.58465989858943
C            4.23707669887174       -0.37201746857158        0.65860415272957
C            2.81489674935050        0.16995636205940        0.78013891510294
C            2.57548445189338        1.35892770806045       -0.14757021784313
C            1.17896093907193        1.96571339464104       -0.00796542389232
C            0.06632572376778        1.04388440602600       -0.50221997689201
C           -1.30158990236886        1.71959764307529       -0.44688285958330
C           -2.41627549138332        0.79131412467658       -0.92265414182110
C           -3.78541722555700        1.46500356826789       -0.88280793080919
C           -4.89826660820265        0.52855287005365       -1.34681704338515
C           -6.26619382052322        1.20554127749597       -1.32641969997332
C           -7.38082316275701        0.26598448482571       -1.77990981350692
C           -8.74112134544756        0.95196190030360       -1.76839681106571
H            8.27011429174636       -3.12800197779737        2.46288927676190
H            7.68547531962852       -4.23943006378504        1.22486245762570
H            7.66790213760409       -4.72168416198847        2.92196963426387
H            5.38359746070656       -4.09174319718714        2.17633862423933
H            5.96626861260927       -2.98558352146338        3.41920439212069
H            6.61347352542972       -1.34732651420168        1.66423505499762
H            6.04415866093421       -2.45484392105326        0.41625869071293
H            4.30959370114374       -1.25183600534117        2.61945958651396
H            3.74680511539362       -2.34576164487443        1.35717426755974
H            4.41899416679777       -0.67654290269604       -0.37504309027227
H            4.95008995133722        0.42067573050069        0.89830789287052