 Entering Gaussian System
 *********************************************
 Gaussian 98:
 frequency output generated by the xtb code
 *********************************************
                         Standard orientation:
 --------------------------------------------------------------------
  Center     Atomic     Atomic              Coordinates (Angstroms)
  Number     Number      Type              X           Y           Z
 --------------------------------------------------------------------
    1          6             0       -4.744736   -0.614464    0.160503
    2          6             0       -3.308953   -0.775748   -0.323744
    3          6             0       -2.400084    0.331276    0.205786
    4          6             0       -0.958212    0.164368   -0.268085
    5          6             0       -0.042735    1.251695    0.290981
    6          6             0        1.386308    1.177500   -0.249097
    7          6             0        2.147412   -0.060466    0.220524
    8          6             0        3.598108   -0.055660   -0.256135
    9          6             0        4.344511   -1.306968    0.190972
   10          1             0       -5.372130   -1.414259   -0.226395
   11          1             0       -5.155531    0.336092   -0.172967
   12          1             0       -4.785614   -0.641399    1.247349
   13          1             0       -3.291065   -0.765159   -1.416019
   14          1             0       -2.923663   -1.744399    0.003165
   15          1             0       -2.781616    1.300123   -0.125453
   16          1             0       -2.423716    0.323918    1.298233
   17          1             0       -0.931232    0.197561   -1.359965
   18          1             0       -0.597209   -0.817026    0.043881
   19          1             0       -0.019946    1.179643    1.380946
   20          1             0       -0.462431    2.227875    0.034863
   21          1             0        1.930029    2.067464    0.078353
   22          1             0        1.359607    1.192469   -1.341335
   23          1             0        1.657228   -0.959469   -0.156661
   24          1             0        2.127536   -0.102634    1.312226
   25          1             0        3.618471    0.008058   -1.346604
   26          1             0        4.105601    0.828940    0.135652
   27          1             0        5.373802   -1.286453   -0.159761
   28          1             0        3.864646   -2.199112   -0.205995
   29          1             0        4.353086   -1.378750    1.276539
 --------------------------------------------------------------------
     1 basis functions        1 primitive gaussians
     1 alpha electrons        1 beta electrons
 
 Harmonic frequencies (cm**-1), IR intensities (km*mol⁻¹),
 Raman scattering activities (A**4/amu), Raman depolarization ratios,
 reduced masses (AMU), force constants (mDyne/A) and normal coordinates:
                      1                      2                      3
                        a                      a                      a 
 Frequencies --    39.1826                47.7565                58.6729
 Red. masses --     6.4891                 7.1643                 7.2415
 Frc consts  --     0.0000                 0.0000                 0.0000
 IR Inten    --     0.0049                 0.0047                 0.0098
 Raman Activ --     0.0000                 0.0000                 0.0000
 Depolar     --     0.0000                 0.0000                 0.0000
 Atom AN      X      Y      Z        X      Y      Z        X      Y      Z
   1   6    -0.11   0.23  -0.35     0.15  -0.22   0.11     0.12  -0.23  -0.12
   2   6     0.05  -0.16   0.23     0.17  -0.13   0.13     0.17  -0.07  -0.02
   3   6    -0.04   0.04  -0.06     0.03   0.12  -0.14     0.01   0.06  -0.02
   4   6     0.06  -0.21   0.33     0.06   0.14  -0.06     0.05   0.14   0.06
   5   6    -0.01  -0.04   0.11     0.00   0.20  -0.09     0.00   0.17   0.07
   6   6    -0.03  -0.00   0.06     0.04   0.16   0.02     0.02   0.13   0.11
   7   6     0.02   0.00  -0.01    -0.14  -0.01  -0.14     0.02   0.21   0.30
   8   6     0.01   0.07  -0.06    -0.01   0.04   0.26    -0.17  -0.21  -0.27
   9   6     0.05   0.04  -0.21    -0.29  -0.26  -0.10    -0.21  -0.17  -0.07
  10   1    -0.01   0.02  -0.03     0.08  -0.12   0.09     0.07  -0.09  -0.04
  11   1     0.02   0.02  -0.30     0.00  -0.10  -0.04     0.00  -0.09  -0.06
  12   1    -0.14   0.25  -0.10     0.05   0.01   0.03     0.01  -0.05  -0.04
  13   1     0.12  -0.22   0.07     0.05  -0.11   0.04     0.07  -0.03  -0.01
  14   1    -0.04  -0.01   0.26     0.09   0.00   0.11     0.08  -0.00   0.01
  15   1     0.02  -0.03  -0.17    -0.02  -0.00  -0.11    -0.02   0.00  -0.03
  16   1    -0.08   0.15  -0.02     0.00   0.11  -0.04    -0.01   0.03  -0.01
  17   1     0.09  -0.18   0.09     0.03   0.01  -0.02     0.03   0.04   0.02
  18   1    -0.01  -0.03   0.22     0.02   0.05   0.02     0.02   0.05   0.02
  19   1     0.01   0.05   0.03    -0.02   0.09  -0.03    -0.01   0.06   0.02
  20   1    -0.03  -0.03  -0.01     0.00   0.05  -0.06     0.00   0.05   0.01
  21   1    -0.01   0.00   0.02     0.03   0.01   0.07     0.00   0.06  -0.01
  22   1    -0.02   0.01   0.02     0.04   0.11   0.01     0.01  -0.01   0.03
  23   1     0.01   0.00  -0.01    -0.02   0.04  -0.16    -0.07   0.04   0.24
  24   1     0.01  -0.02  -0.00    -0.13  -0.10  -0.04     0.12   0.18   0.09
  25   1    -0.01   0.05  -0.02     0.09   0.15   0.09    -0.17  -0.19  -0.09
  26   1     0.00   0.01   0.00    -0.00  -0.06   0.23     0.04  -0.04  -0.24
  27   1     0.01   0.03  -0.07    -0.05  -0.06   0.07    -0.10  -0.15  -0.15
  28   1     0.02   0.02  -0.08    -0.08  -0.00  -0.20    -0.16  -0.07   0.15
  29   1     0.02  -0.02  -0.06    -0.19  -0.23  -0.04     0.07   0.08  -0.01
                      4                      5                      6
                        a                      a                      a 
 Frequencies --   100.7493               106.6313               120.2310
 Red. masses --     7.6121                 8.0442                 6.7846
 Frc consts  --     0.0000                 0.0000                 0.0000
 IR Inten    --     0.0134                 0.0146                 0.0015
 Raman Activ --     0.0000                 0.0000                 0.0000
 Depolar     --     0.0000                 0.0000                 0.0000
 Atom AN      X      Y      Z        X      Y      Z        X      Y      Z
   1   6     0.01   0.01  -0.21     0.04  -0.09  -0.18    -0.06   0.19  -0.16
   2   6     0.06   0.06  -0.08     0.14  -0.02   0.10     0.03  -0.20   0.26
   3   6     0.11  -0.21   0.41     0.01   0.05   0.18     0.08  -0.24   0.24
   4   6     0.08  -0.13   0.31    -0.01   0.18   0.07    -0.07   0.18  -0.38
   5   6     0.02   0.15  -0.15     0.06   0.07   0.17    -0.01  -0.04  -0.07
   6   6    -0.03   0.06  -0.26    -0.01   0.06  -0.00     0.01   0.02  -0.02
   7   6    -0.04   0.13  -0.07    -0.16  -0.20  -0.45     0.05   0.10   0.11
   8   6     0.01   0.04   0.07    -0.09  -0.14  -0.23     0.04   0.03   0.07
   9   6    -0.20  -0.10   0.01    -0.00   0.10   0.32    -0.05  -0.06  -0.04
  10   1    -0.01   0.08  -0.19     0.05  -0.05  -0.06    -0.02   0.03   0.01
  11   1     0.05   0.06   0.05     0.01  -0.05  -0.10     0.04   0.03  -0.19
  12   1    -0.04  -0.14  -0.06    -0.05   0.01  -0.05    -0.10   0.19  -0.05
  13   1     0.05   0.14  -0.02     0.10  -0.02   0.03     0.09  -0.13   0.08
  14   1    -0.02  -0.03  -0.12     0.04   0.00   0.06    -0.06  -0.06   0.16
  15   1     0.05  -0.02   0.23    -0.03   0.01   0.08    -0.06  -0.06   0.20
  16   1     0.03  -0.19   0.12     0.02  -0.01   0.05     0.15  -0.17   0.07
  17   1    -0.02  -0.12   0.09    -0.03   0.11   0.02    -0.13   0.23  -0.11
  18   1     0.07   0.00   0.15     0.01   0.04  -0.03     0.04   0.01  -0.31
  19   1     0.04   0.16  -0.04     0.05  -0.03   0.04    -0.01  -0.10  -0.03
  20   1    -0.02   0.01  -0.13     0.02   0.04   0.11     0.01   0.02   0.06
  21   1     0.00   0.03  -0.14     0.04  -0.03   0.07    -0.01   0.02  -0.02
  22   1    -0.03  -0.05  -0.08    -0.03   0.12   0.00     0.02  -0.02  -0.01
  23   1     0.00   0.02  -0.00    -0.05  -0.00  -0.25     0.01   0.01   0.07
  24   1    -0.04   0.07  -0.02    -0.08  -0.18  -0.13     0.02   0.07   0.03
  25   1     0.04   0.05   0.02     0.03  -0.14  -0.07     0.00   0.03   0.02
  26   1     0.02  -0.02   0.06    -0.08   0.01  -0.12     0.03  -0.01   0.03
  27   1    -0.04  -0.05   0.05     0.01   0.02   0.12    -0.01  -0.03  -0.01
  28   1    -0.07   0.00  -0.06     0.04  -0.03   0.18    -0.03   0.00  -0.03
  29   1    -0.11  -0.08  -0.00    -0.03   0.15   0.10    -0.02  -0.04  -0.01
                      7                      8                      9
                        a                      a                      a 
 Frequencies --   153.2931               202.9902               232.0171
 Red. masses --     8.4501                 7.4370                 2.5552
 Frc consts  --     0.0000                 0.0000                 0.0000
 IR Inten    --     0.1436                 0.1495                 0.0055
 Raman Activ --     0.0000                 0.0000                 0.0000
 Depolar     --     0.0000                 0.0000                 0.0000
 Atom AN      X      Y      Z        X      Y      Z        X      Y      Z
   1   6     0.10   0.29   0.17    -0.07  -0.08   0.01    -0.09  -0.07  -0.02
   2   6    -0.03  -0.12  -0.08    -0.06   0.04  -0.02    -0.07   0.04   0.01
   3   6     0.19  -0.28  -0.16    -0.08   0.09  -0.07    -0.05   0.03   0.04
   4   6     0.20  -0.28  -0.08    -0.04  -0.03   0.05    -0.05  -0.01   0.02
   5   6    -0.07  -0.10   0.02     0.10  -0.26   0.29     0.02  -0.03  -0.03
   6   6     0.01   0.29   0.19    -0.06   0.06  -0.23     0.03   0.03  -0.05
   7   6    -0.05   0.14  -0.13     0.23   0.29  -0.14     0.06   0.01  -0.14
   8   6    -0.06   0.02  -0.12     0.25   0.09  -0.08     0.17   0.11   0.19
   9   6    -0.24  -0.00   0.12    -0.22  -0.13   0.14    -0.01  -0.07  -0.01
  10   1    -0.07   0.15   0.07     0.01  -0.07   0.05     0.01  -0.06   0.03
  11   1     0.10   0.13   0.08    -0.07  -0.06  -0.05    -0.07  -0.05  -0.04
  12   1     0.08   0.08   0.05    -0.01   0.04   0.00    -0.03   0.02  -0.00
  13   1    -0.05  -0.03  -0.02    -0.03   0.00  -0.01    -0.02   0.02   0.00
  14   1    -0.06  -0.06  -0.04     0.00   0.02  -0.00    -0.01   0.01  -0.01
  15   1     0.08  -0.07  -0.04    -0.01   0.02  -0.06    -0.01   0.01   0.02
  16   1     0.06  -0.08  -0.04    -0.05   0.06  -0.02    -0.01   0.00   0.01
  17   1     0.09  -0.10  -0.02     0.01   0.05   0.02    -0.02  -0.01   0.00
  18   1     0.07  -0.07   0.01    -0.06  -0.04  -0.03    -0.02  -0.00   0.01
  19   1    -0.05  -0.04   0.00     0.14  -0.23   0.07     0.02  -0.01  -0.01
  20   1    -0.08  -0.05   0.01    -0.01  -0.05   0.26     0.00  -0.01  -0.00
  21   1    -0.04   0.06   0.18    -0.04   0.07  -0.16    -0.00   0.01   0.01
  22   1     0.05   0.20   0.06    -0.12  -0.04  -0.06     0.01   0.03  -0.01
  23   1    -0.04   0.08  -0.09     0.07   0.05   0.03     0.05   0.02  -0.13
  24   1    -0.02  -0.03  -0.04     0.08   0.14  -0.04    -0.05  -0.07  -0.04
  25   1    -0.01  -0.04  -0.04     0.11   0.01  -0.02     0.10   0.11   0.06
  26   1     0.00   0.01  -0.07     0.12  -0.01  -0.01     0.05  -0.01   0.14
  27   1    -0.08  -0.08   0.01    -0.02  -0.11   0.18    -0.14  -0.29  -0.43
  28   1    -0.13  -0.00   0.11    -0.08   0.01  -0.05    -0.34  -0.00   0.36
  29   1    -0.05   0.08   0.04    -0.22  -0.06   0.04     0.43   0.18   0.01
                     10                     11                     12
                        a                      a                      a 
 Frequencies --   233.5367               260.1285               340.0288
 Red. masses --     2.2900                 8.1607                 8.9652
 Frc consts  --     0.0000                 0.0000                 0.0000
 IR Inten    --     0.0016                 0.0082                 0.0274
 Raman Activ --     0.0000                 0.0000                 0.0000
 Depolar     --     0.0000                 0.0000                 0.0000
 Atom AN      X      Y      Z        X      Y      Z        X      Y      Z
   1   6     0.05   0.01   0.04    -0.32  -0.16  -0.03    -0.00  -0.14  -0.09
   2   6    -0.03   0.14  -0.23    -0.24   0.03   0.07     0.14   0.35   0.21
   3   6     0.06  -0.09   0.10    -0.13  -0.02   0.08     0.20   0.27   0.14
   4   6     0.04  -0.05   0.07    -0.09  -0.03   0.00     0.02  -0.30  -0.19
   5   6    -0.01   0.03  -0.01    -0.03   0.10  -0.23    -0.01  -0.35  -0.19
   6   6    -0.01  -0.02   0.01     0.21   0.22   0.24     0.03  -0.03   0.08
   7   6    -0.05  -0.03   0.02     0.25   0.10  -0.06    -0.05  -0.02   0.07
   8   6    -0.06  -0.01  -0.00     0.26  -0.10  -0.14    -0.13   0.11  -0.03
   9   6     0.00   0.03  -0.01     0.13  -0.14   0.05    -0.18   0.12  -0.01
  10   1     0.12  -0.29   0.45    -0.04  -0.09  -0.02     0.13  -0.10  -0.10
  11   1    -0.20  -0.23  -0.37    -0.14  -0.07  -0.03    -0.09  -0.08  -0.03
  12   1     0.15   0.48   0.03    -0.12  -0.04  -0.01    -0.09  -0.08  -0.03
  13   1    -0.05   0.14  -0.06    -0.07   0.02   0.02     0.08   0.11   0.06
  14   1     0.00   0.01  -0.16    -0.07   0.00   0.00     0.07   0.11   0.05
  15   1     0.04   0.01   0.13    -0.03   0.00   0.04     0.12   0.10   0.04
  16   1     0.02  -0.13   0.03    -0.02  -0.02   0.02     0.12   0.10   0.04
  17   1     0.00  -0.03   0.02    -0.05  -0.06  -0.00    -0.04  -0.10  -0.05
  18   1     0.03  -0.01   0.03    -0.02   0.01   0.04    -0.05  -0.10  -0.05
  19   1    -0.01   0.04  -0.00    -0.09   0.12  -0.06    -0.04  -0.12  -0.05
  20   1    -0.01  -0.00  -0.04     0.01   0.01  -0.17    -0.04  -0.11  -0.04
  21   1     0.00  -0.01  -0.00     0.00   0.04   0.23    -0.04  -0.01   0.11
  22   1    -0.00  -0.01   0.00     0.17   0.20   0.07     0.09   0.05   0.02
  23   1    -0.02  -0.01   0.01     0.03   0.06  -0.05    -0.02  -0.00   0.02
  24   1    -0.01  -0.00   0.01     0.10  -0.02  -0.02    -0.00  -0.01   0.02
  25   1    -0.03  -0.01  -0.00     0.07  -0.08  -0.04    -0.06   0.03  -0.01
  26   1    -0.02   0.00  -0.01     0.11  -0.03  -0.08    -0.04   0.04  -0.02
  27   1     0.01   0.04   0.02     0.07  -0.03   0.13    -0.05   0.01   0.02
  28   1     0.03   0.00  -0.03     0.09  -0.04  -0.05    -0.06   0.04  -0.01
  29   1    -0.02  -0.01  -0.00    -0.08  -0.06   0.01    -0.07   0.04  -0.00
                     13                     14                     15
                        a                      a                      a 
 Frequencies --   402.6134               418.3946               512.7833
 Red. masses --     8.3996                 9.3685                 8.6349
 Frc consts  --     0.0000                 0.0000                 0.0000
 IR Inten    --     0.0493                 0.1613                 0.4184
 Raman Activ --     0.0000                 0.0000                 0.0000
 Depolar     --     0.0000                 0.0000                 0.0000
 Atom AN      X      Y      Z        X      Y      Z        X      Y      Z
   1   6     0.17   0.07   0.01    -0.37  -0.11   0.02    -0.11  -0.04  -0.00
   2   6     0.10  -0.08  -0.07    -0.26  -0.01   0.06    -0.01   0.16   0.12
   3   6    -0.13   0.01   0.04     0.16  -0.13  -0.13     0.30  -0.03  -0.10
   4   6    -0.15   0.09   0.04     0.32   0.09  -0.01     0.23  -0.02  -0.13
   5   6    -0.08   0.04  -0.08     0.33   0.13   0.08    -0.36   0.23   0.17
   6   6     0.01  -0.35   0.21     0.25  -0.11  -0.03    -0.41  -0.13   0.12
   7   6     0.26  -0.21   0.02    -0.02  -0.15   0.08     0.07  -0.01  -0.08
   8   6     0.17   0.28  -0.21    -0.14   0.14  -0.04     0.18  -0.01  -0.06
   9   6    -0.32   0.13   0.03    -0.23   0.17  -0.02     0.09  -0.10   0.03
  10   1    -0.01   0.05   0.03    -0.05  -0.06  -0.03     0.05  -0.06  -0.05
  11   1     0.09   0.04   0.01    -0.15  -0.05   0.00    -0.09  -0.04  -0.01
  12   1     0.09   0.04   0.00    -0.15  -0.05   0.00    -0.09  -0.04  -0.00
  13   1     0.03  -0.02  -0.02    -0.11  -0.02   0.02    -0.02   0.03   0.03
  14   1     0.04  -0.02  -0.02    -0.11  -0.02   0.01    -0.02   0.04   0.03
  15   1    -0.07  -0.01   0.02     0.06  -0.03  -0.03     0.13   0.01  -0.01
  16   1    -0.05  -0.01   0.01     0.06  -0.03  -0.04     0.14   0.01  -0.03
  17   1    -0.06   0.01   0.01     0.13   0.05  -0.00     0.12   0.03  -0.03
  18   1    -0.03   0.03   0.02     0.12   0.03  -0.01     0.13   0.02  -0.04
  19   1    -0.11   0.12  -0.01     0.12   0.03   0.02    -0.20   0.14   0.05
  20   1     0.07   0.02  -0.16     0.12   0.05   0.04    -0.09   0.04  -0.07
  21   1     0.01  -0.10   0.06     0.14  -0.06  -0.06    -0.07  -0.01  -0.12
  22   1     0.03  -0.10   0.06     0.05  -0.08  -0.01    -0.24  -0.12   0.03
  23   1     0.14  -0.09  -0.01     0.01  -0.05   0.02     0.07  -0.03  -0.02
  24   1     0.14  -0.11   0.00     0.00  -0.04   0.02     0.05  -0.03  -0.02
  25   1     0.04   0.08  -0.06    -0.06   0.05  -0.01     0.08  -0.01  -0.02
  26   1     0.04   0.08  -0.05    -0.06   0.05  -0.01     0.06  -0.02  -0.00
  27   1    -0.06  -0.14   0.09    -0.06   0.01   0.01     0.03  -0.06   0.02
  28   1    -0.20   0.09   0.02    -0.09   0.06  -0.00     0.01  -0.02   0.01
  29   1    -0.19   0.09   0.01    -0.09   0.06  -0.00     0.01  -0.02   0.01
                     16                     17                     18
                        a                      a                      a 
 Frequencies --   765.6462               773.9195               791.4442
 Red. masses --     1.9399                 1.8066                 2.4040
 Frc consts  --     0.0000                 0.0000                 0.0000
 IR Inten    --    14.1313                 5.5467                 1.4712
 Raman Activ --     0.0000                 0.0000                 0.0000
 Depolar     --     0.0000                 0.0000                 0.0000
 Atom AN      X      Y      Z        X      Y      Z        X      Y      Z
   1   6    -0.01   0.00   0.00    -0.00  -0.01   0.01     0.01  -0.02   0.03
   2   6    -0.01   0.04  -0.03     0.02  -0.05   0.08     0.04  -0.09   0.15
   3   6     0.01   0.04  -0.09     0.05  -0.08   0.09     0.03  -0.05   0.04
   4   6    -0.01   0.11  -0.08     0.03  -0.01   0.08    -0.03   0.10  -0.10
   5   6    -0.07   0.08  -0.06    -0.01   0.00   0.01    -0.10   0.12  -0.11
   6   6    -0.08  -0.06  -0.06    -0.05  -0.04  -0.05    -0.06  -0.02  -0.04
   7   6    -0.03  -0.10  -0.07    -0.04  -0.06  -0.12     0.02  -0.05   0.08
   8   6     0.02  -0.02  -0.08    -0.03  -0.05  -0.09     0.07   0.07   0.06
   9   6     0.01  -0.01  -0.00    -0.00  -0.01  -0.01     0.02   0.00   0.02
  10   1     0.01  -0.01   0.01    -0.00   0.02  -0.03    -0.01   0.04  -0.06
  11   1    -0.04  -0.00   0.04     0.07   0.00  -0.08     0.15   0.01  -0.14
  12   1     0.04  -0.03   0.00    -0.10   0.05  -0.00    -0.19   0.08   0.00
  13   1     0.03  -0.16  -0.01    -0.07   0.26   0.02    -0.13   0.32   0.04
  14   1     0.00   0.06   0.15     0.01  -0.10  -0.25     0.06  -0.12  -0.32
  15   1    -0.06   0.08   0.25     0.04  -0.11  -0.28    -0.08  -0.09  -0.13
  16   1     0.14  -0.25  -0.02    -0.10   0.28   0.02     0.07   0.16   0.01
  17   1     0.14  -0.29  -0.02    -0.09   0.18   0.02     0.02  -0.25  -0.03
  18   1    -0.02   0.13   0.32     0.08  -0.04  -0.18     0.06   0.13   0.23
  19   1     0.05  -0.22  -0.03     0.02   0.07   0.01     0.06  -0.29  -0.05
  20   1     0.02   0.10   0.23    -0.01  -0.02  -0.06    -0.01   0.12   0.29
  21   1     0.00  -0.11   0.20     0.00  -0.09   0.18    -0.02  -0.02   0.04
  22   1     0.07   0.19  -0.01     0.04   0.19  -0.01     0.07   0.01  -0.01
  23   1    -0.03  -0.13   0.27    -0.06  -0.12   0.30     0.09  -0.02  -0.08
  24   1     0.15   0.24  -0.00     0.16   0.28  -0.01    -0.08  -0.09   0.02
  25   1     0.14   0.17  -0.01     0.17   0.22  -0.00    -0.10  -0.17   0.00
  26   1    -0.06  -0.05   0.18    -0.09  -0.09   0.25     0.05   0.09  -0.19
  27   1     0.01  -0.01   0.03     0.01   0.02   0.03    -0.00  -0.05  -0.02
  28   1     0.02  -0.04   0.06     0.05  -0.07   0.08    -0.07   0.07  -0.07
  29   1    -0.02   0.08   0.01    -0.02   0.12   0.01     0.01  -0.11  -0.00
                     19                     20                     21
                        a                      a                      a 
 Frequencies --   822.3347               866.4014               928.6069
 Red. masses --     2.7828                 3.2881                 3.6875
 Frc consts  --     0.0000                 0.0000                 0.0000
 IR Inten    --     0.3794                 2.6118                 0.6705
 Raman Activ --     0.0000                 0.0000                 0.0000
 Depolar     --     0.0000                 0.0000                 0.0000
 Atom AN      X      Y      Z        X      Y      Z        X      Y      Z
   1   6     0.02  -0.02   0.02     0.01  -0.06   0.08    -0.01   0.02  -0.08
   2   6     0.01  -0.06   0.07     0.02  -0.10   0.10    -0.01  -0.01  -0.00
   3   6    -0.06   0.04  -0.01    -0.05   0.14  -0.16    -0.03  -0.02   0.14
   4   6    -0.06  -0.03  -0.14     0.01   0.04  -0.03    -0.05  -0.09  -0.19
   5   6     0.03   0.00   0.02     0.14  -0.17   0.15     0.02   0.08   0.08
   6   6     0.15   0.12   0.17    -0.00  -0.07   0.02     0.18   0.08   0.16
   7   6     0.04   0.05   0.07    -0.01   0.09  -0.16     0.04  -0.06  -0.22
   8   6    -0.08  -0.11  -0.16    -0.04   0.00   0.09    -0.06  -0.06   0.05
   9   6    -0.03  -0.02  -0.06    -0.03   0.03   0.05    -0.06   0.11   0.13
  10   1    -0.02   0.03  -0.03    -0.04   0.07  -0.08    -0.03  -0.02   0.08
  11   1     0.11   0.01  -0.08     0.23   0.02  -0.17    -0.09   0.00   0.09
  12   1    -0.10   0.05   0.00    -0.26   0.10   0.01     0.18  -0.03  -0.01
  13   1    -0.08   0.12   0.02    -0.21   0.09   0.02     0.15   0.06   0.00
  14   1     0.06  -0.04  -0.13     0.18  -0.01  -0.15    -0.11  -0.05  -0.00
  15   1    -0.09   0.00   0.06    -0.13   0.08   0.23    -0.05  -0.06  -0.09
  16   1     0.08  -0.02   0.00     0.16  -0.20  -0.04     0.03   0.14   0.04
  17   1     0.04  -0.16  -0.04     0.20   0.02  -0.00    -0.05  -0.16  -0.05
  18   1    -0.09   0.01   0.12    -0.20  -0.05   0.05    -0.02   0.01   0.07
  19   1    -0.09  -0.04   0.00    -0.09   0.24   0.06    -0.17  -0.05   0.02
  20   1     0.02   0.00   0.01     0.09  -0.10  -0.27     0.05   0.04   0.01
  21   1     0.05   0.15  -0.31    -0.00  -0.03   0.04     0.17   0.03  -0.19
  22   1    -0.11  -0.30   0.04    -0.09   0.08   0.01    -0.17  -0.12   0.04
  23   1    -0.13   0.14  -0.11    -0.02  -0.01   0.07    -0.15  -0.01   0.15
  24   1     0.08  -0.18   0.01     0.01   0.16  -0.04     0.24   0.12  -0.05
  25   1     0.08   0.31  -0.02     0.03  -0.12   0.02     0.22  -0.16   0.01
  26   1    -0.01  -0.17   0.28    -0.04   0.05  -0.06    -0.21   0.09   0.01
  27   1     0.02   0.06   0.09    -0.04   0.05  -0.08    -0.08   0.08  -0.15
  28   1     0.14  -0.16   0.17    -0.03   0.06  -0.08    -0.10   0.16  -0.17
  29   1    -0.08   0.26   0.00     0.08  -0.14   0.00     0.14  -0.28   0.01
                     22                     23                     24
                        a                      a                      a 
 Frequencies --   934.4329               941.2351               970.2981
 Red. masses --     5.8810                 6.0883                 4.4078
 Frc consts  --     0.0000                 0.0000                 0.0000
 IR Inten    --     4.6562                 2.6658                 3.0869
 Raman Activ --     0.0000                 0.0000                 0.0000
 Depolar     --     0.0000                 0.0000                 0.0000
 Atom AN      X      Y      Z        X      Y      Z        X      Y      Z
   1   6    -0.11  -0.01  -0.04     0.29   0.20   0.06     0.02   0.12  -0.08
   2   6     0.01  -0.08  -0.05    -0.01   0.23   0.16     0.02  -0.03   0.07
   3   6     0.10   0.04   0.09    -0.10  -0.33  -0.20     0.01  -0.10   0.02
   4   6     0.07   0.19   0.00    -0.16   0.02   0.05    -0.02   0.19  -0.08
   5   6     0.07  -0.14  -0.08    -0.03   0.03   0.03     0.19  -0.20   0.03
   6   6    -0.14  -0.25   0.08     0.09  -0.04  -0.01    -0.09  -0.08   0.05
   7   6     0.21   0.27  -0.12     0.13   0.04  -0.06    -0.23   0.12   0.03
   8   6    -0.15  -0.09   0.10    -0.06  -0.06   0.05     0.05   0.11  -0.06
   9   6    -0.25   0.00   0.01    -0.12   0.05   0.01     0.21  -0.10  -0.03
  10   1    -0.11   0.01   0.09     0.48  -0.15  -0.23     0.13  -0.08   0.02
  11   1    -0.05   0.01   0.07    -0.19  -0.09  -0.04    -0.24  -0.03   0.12
  12   1     0.12  -0.01  -0.00    -0.19  -0.11  -0.00     0.15  -0.09  -0.02
  13   1     0.11   0.02  -0.01    -0.13   0.01   0.04     0.15   0.13   0.02
  14   1    -0.06  -0.05  -0.02    -0.12   0.01   0.04    -0.24  -0.13  -0.06
  15   1    -0.02  -0.03  -0.05    -0.07  -0.11  -0.05    -0.24  -0.14  -0.07
  16   1     0.04   0.10   0.02    -0.08  -0.11  -0.06     0.16   0.12   0.01
  17   1     0.03  -0.06  -0.00    -0.02   0.00   0.01     0.16  -0.08  -0.02
  18   1     0.06   0.10   0.10    -0.01   0.02   0.01    -0.15   0.04   0.14
  19   1    -0.04  -0.04  -0.02     0.01   0.01   0.01    -0.05   0.10   0.02
  20   1     0.17   0.02  -0.05     0.03   0.02   0.01     0.17  -0.05  -0.17
  21   1    -0.15  -0.03   0.12     0.02  -0.01   0.00    -0.07  -0.00   0.04
  22   1    -0.00   0.03   0.02     0.03  -0.00  -0.00    -0.07   0.03   0.01
  23   1     0.16   0.05  -0.12     0.04   0.01  -0.02    -0.09   0.06  -0.01
  24   1    -0.01  -0.01  -0.04     0.04  -0.00  -0.02    -0.15   0.06   0.01
  25   1    -0.03  -0.03   0.03     0.02  -0.04   0.01    -0.08   0.07  -0.02
  26   1     0.16  -0.13   0.02     0.02  -0.04   0.01    -0.01   0.05  -0.03
  27   1    -0.11   0.40  -0.12    -0.06   0.17  -0.07     0.10  -0.26   0.12
  28   1     0.22  -0.17   0.04     0.06  -0.03  -0.01    -0.07   0.02   0.04
  29   1     0.13   0.03   0.00     0.06  -0.02  -0.00    -0.11   0.06   0.00
                     25                     26                     27
                        a                      a                      a 
 Frequencies --   998.6480              1028.4774              1072.4976
 Red. masses --     5.6602                 4.2213                 8.4574
 Frc consts  --     0.0000                 0.0000                 0.0000
 IR Inten    --     0.9953                 0.3744                 1.3145
 Raman Activ --     0.0000                 0.0000                 0.0000
 Depolar     --     0.0000                 0.0000                 0.0000
 Atom AN      X      Y      Z        X      Y      Z        X      Y      Z
   1   6    -0.03   0.02   0.09    -0.09   0.04  -0.03     0.28  -0.10  -0.16
   2   6     0.03  -0.01  -0.09     0.08  -0.07   0.04    -0.32   0.08   0.18
   3   6     0.12  -0.03  -0.03     0.09   0.04  -0.09    -0.29   0.03   0.04
   4   6     0.07   0.22   0.20     0.00   0.13   0.14     0.19  -0.18  -0.11
   5   6     0.11  -0.18  -0.29    -0.20  -0.08  -0.04     0.14   0.15  -0.03
   6   6    -0.18  -0.09   0.21    -0.04   0.14  -0.16    -0.16  -0.08   0.06
   7   6    -0.13   0.14  -0.03     0.16  -0.19   0.13    -0.10   0.08   0.04
   8   6    -0.04   0.04  -0.13     0.02  -0.13  -0.03    -0.06   0.24  -0.16
   9   6     0.12  -0.05   0.11    -0.09   0.12   0.03     0.02  -0.22   0.14
  10   1     0.05  -0.00  -0.06    -0.02  -0.02   0.04    -0.01   0.01   0.02
  11   1     0.01  -0.01  -0.05    -0.11  -0.00   0.07     0.14   0.01  -0.02
  12   1    -0.16   0.01   0.02     0.08  -0.03  -0.00     0.18   0.01  -0.04
  13   1    -0.12  -0.12  -0.03     0.10   0.11   0.01    -0.04   0.07   0.05
  14   1     0.05   0.03   0.03    -0.09  -0.09  -0.07    -0.08   0.02   0.03
  15   1     0.12   0.03  -0.02    -0.18  -0.05   0.04    -0.09   0.02   0.05
  16   1    -0.16  -0.06  -0.01     0.23   0.02  -0.02     0.04   0.02   0.02
  17   1    -0.12   0.05   0.05     0.24   0.17   0.05     0.16   0.05  -0.02
  18   1     0.11   0.08   0.01    -0.19  -0.05  -0.00     0.03  -0.07  -0.08
  19   1     0.07  -0.13  -0.08     0.23   0.09  -0.01     0.25   0.05  -0.01
  20   1     0.12   0.01   0.02    -0.29  -0.12   0.00    -0.05   0.02   0.05
  21   1    -0.24   0.11  -0.01    -0.19   0.13   0.01    -0.04  -0.04   0.05
  22   1     0.06  -0.19   0.05     0.25  -0.06  -0.05     0.12  -0.07   0.01
  23   1    -0.22   0.15  -0.02    -0.07   0.03  -0.02     0.03   0.01  -0.02
  24   1     0.18  -0.09  -0.01     0.19  -0.20   0.03     0.10  -0.09   0.01
  25   1     0.21   0.00  -0.03     0.14  -0.03  -0.00     0.08   0.05  -0.04
  26   1    -0.19   0.08   0.06    -0.09  -0.01   0.07    -0.00   0.05  -0.01
  27   1     0.01  -0.10  -0.03    -0.05   0.07  -0.06    -0.02   0.08  -0.05
  28   1    -0.08   0.09  -0.08    -0.04   0.07  -0.06     0.10  -0.09  -0.00
  29   1     0.06  -0.17   0.02     0.04  -0.06  -0.00     0.13  -0.14   0.03
                     28                     29                     30
                        a                      a                      a 
 Frequencies --  1088.1791              1097.6101              1112.0503
 Red. masses --     9.0086                 7.5534                 8.0704
 Frc consts  --     0.0000                 0.0000                 0.0000
 IR Inten    --     0.7508                 0.7315                 0.7163
 Raman Activ --     0.0000                 0.0000                 0.0000
 Depolar     --     0.0000                 0.0000                 0.0000
 Atom AN      X      Y      Z        X      Y      Z        X      Y      Z
   1   6     0.23  -0.05  -0.08    -0.15   0.18   0.16     0.12  -0.07  -0.07
   2   6    -0.28   0.02   0.06     0.26  -0.12  -0.14    -0.19   0.02   0.05
   3   6    -0.22   0.07   0.14    -0.24   0.13   0.13     0.10  -0.01  -0.00
   4   6     0.35   0.11  -0.06     0.35   0.01  -0.07    -0.01   0.17   0.07
   5   6     0.05  -0.15  -0.09     0.07  -0.07  -0.11    -0.18  -0.16   0.03
   6   6    -0.15   0.12  -0.01    -0.10   0.20   0.03     0.15   0.09  -0.13
   7   6     0.11  -0.12   0.03     0.04  -0.19   0.02     0.37  -0.07  -0.09
   8   6     0.12  -0.35   0.15    -0.07   0.21  -0.04    -0.41   0.17   0.05
   9   6    -0.05   0.30  -0.15    -0.02  -0.17   0.07     0.15  -0.23   0.07
  10   1     0.06  -0.00  -0.03     0.13  -0.05  -0.07    -0.02   0.01   0.01
  11   1     0.09  -0.00  -0.04    -0.20  -0.03   0.02     0.09   0.01  -0.02
  12   1     0.06  -0.00  -0.02    -0.19  -0.04   0.03     0.07   0.01  -0.02
  13   1    -0.11  -0.02   0.02     0.05  -0.03  -0.04    -0.08  -0.02   0.01
  14   1    -0.08   0.01   0.04     0.05  -0.04  -0.04    -0.06   0.00   0.02
  15   1    -0.05   0.02   0.02    -0.24  -0.04   0.04     0.08   0.02  -0.01
  16   1    -0.13   0.03   0.04    -0.21  -0.04   0.03     0.03   0.03   0.00
  17   1     0.09  -0.01  -0.01     0.06  -0.01  -0.02     0.01   0.01   0.02
  18   1     0.17   0.07   0.02     0.05  -0.01  -0.03     0.08   0.09   0.06
  19   1    -0.10  -0.05  -0.02    -0.06  -0.07  -0.03    -0.18  -0.02   0.01
  20   1     0.02  -0.04  -0.06    -0.15  -0.09  -0.03    -0.01  -0.04  -0.05
  21   1    -0.14   0.09  -0.01     0.07   0.02  -0.07    -0.06   0.09  -0.04
  22   1    -0.14   0.07  -0.00    -0.17   0.04   0.01    -0.03   0.07  -0.03
  23   1    -0.02  -0.01   0.02     0.15  -0.15   0.06     0.12  -0.03  -0.02
  24   1    -0.03  -0.00   0.01     0.07  -0.02   0.01     0.11  -0.01  -0.02
  25   1     0.01  -0.08   0.04    -0.07   0.04  -0.01    -0.28   0.14   0.01
  26   1    -0.00  -0.08   0.05     0.01   0.05  -0.04    -0.27   0.14   0.01
  27   1     0.01  -0.07   0.03    -0.02   0.07  -0.02     0.05  -0.13   0.06
  28   1    -0.13   0.14  -0.03     0.10  -0.10   0.03     0.00  -0.05   0.04
  29   1    -0.13   0.13  -0.03     0.08  -0.05   0.02    -0.01  -0.05   0.02
                     31                     32                     33
                        a                      a                      a 
 Frequencies --  1116.0740              1130.7517              1146.2689
 Red. masses --     7.1855                 7.7301                 8.2670
 Frc consts  --     0.0000                 0.0000                 0.0000
 IR Inten    --     0.8474                 0.6347                 1.8184
 Raman Activ --     0.0000                 0.0000                 0.0000
 Depolar     --     0.0000                 0.0000                 0.0000
 Atom AN      X      Y      Z        X      Y      Z        X      Y      Z
   1   6     0.18   0.04  -0.03    -0.09  -0.03   0.00    -0.01  -0.14  -0.08
   2   6    -0.27  -0.27  -0.11     0.13   0.12   0.05    -0.02   0.25   0.15
   3   6     0.36   0.26   0.07    -0.02  -0.16  -0.11     0.04  -0.27  -0.15
   4   6    -0.16   0.03   0.07    -0.22  -0.15  -0.08    -0.06   0.25   0.13
   5   6     0.15   0.02  -0.07     0.39   0.15  -0.03     0.03  -0.25  -0.08
   6   6    -0.13   0.17   0.06    -0.36   0.19   0.04     0.03   0.25  -0.02
   7   6    -0.05  -0.17   0.05     0.24  -0.15   0.04    -0.21  -0.25   0.12
   8   6     0.10   0.08  -0.02    -0.12  -0.08   0.07     0.22   0.17  -0.11
   9   6    -0.08  -0.03   0.02     0.03   0.02  -0.02    -0.13  -0.07   0.05
  10   1     0.15  -0.05  -0.07    -0.08   0.02   0.04    -0.16   0.05   0.07
  11   1    -0.03  -0.04  -0.03     0.02   0.02   0.02     0.14   0.04   0.00
  12   1    -0.02  -0.05  -0.01     0.02   0.03   0.00     0.11   0.06  -0.01
  13   1    -0.25  -0.14  -0.03     0.10   0.05   0.01     0.07   0.07   0.04
  14   1    -0.26  -0.15  -0.04     0.11   0.06   0.01     0.08   0.10   0.05
  15   1     0.12   0.08   0.03     0.03  -0.03  -0.04     0.03  -0.06  -0.06
  16   1     0.15   0.08   0.02     0.04  -0.03  -0.03    -0.03  -0.05  -0.04
  17   1    -0.19  -0.04   0.01    -0.11  -0.09  -0.03    -0.01   0.01   0.03
  18   1    -0.20  -0.06   0.00    -0.06  -0.04  -0.02     0.04   0.10   0.07
  19   1     0.05   0.01  -0.02     0.26   0.12  -0.01    -0.15  -0.04  -0.02
  20   1    -0.03  -0.02  -0.00     0.19   0.08  -0.01     0.00  -0.08  -0.09
  21   1     0.06   0.01  -0.04    -0.18   0.10   0.02     0.05   0.06  -0.09
  22   1    -0.17   0.05   0.02    -0.23   0.15   0.02    -0.15   0.03  -0.00
  23   1     0.05  -0.10   0.06     0.09  -0.06   0.01     0.00  -0.11   0.08
  24   1     0.02  -0.02   0.02     0.14  -0.11   0.01    -0.05   0.01   0.03
  25   1     0.01  -0.02  -0.01    -0.10   0.02   0.02     0.09  -0.03  -0.03
  26   1     0.10  -0.01  -0.04    -0.10   0.02   0.03     0.16  -0.00  -0.06
  27   1    -0.03   0.10  -0.03     0.01  -0.05   0.02    -0.06   0.16  -0.06
  28   1     0.07  -0.06   0.01    -0.04   0.03   0.00     0.12  -0.09   0.00
  29   1     0.05  -0.00   0.00    -0.04   0.01  -0.00     0.10  -0.03   0.01
                     34                     35                     36
                        a                      a                      a 
 Frequencies --  1178.4879              1213.8068              1227.6596
 Red. masses --     7.0283                 5.5267                 4.5010
 Frc consts  --     0.0000                 0.0000                 0.0000
 IR Inten    --     0.5538                 0.1342                 0.3562
 Raman Activ --     0.0000                 0.0000                 0.0000
 Depolar     --     0.0000                 0.0000                 0.0000
 Atom AN      X      Y      Z        X      Y      Z        X      Y      Z
   1   6    -0.01  -0.01  -0.10    -0.05   0.14  -0.21    -0.03   0.12  -0.09
   2   6     0.02   0.02   0.17     0.07  -0.20   0.29     0.04  -0.16   0.11
   3   6     0.01   0.01  -0.21    -0.06   0.15  -0.22    -0.09   0.08  -0.03
   4   6     0.05   0.00   0.27     0.04  -0.09   0.14    -0.03  -0.07  -0.05
   5   6     0.00   0.04  -0.33     0.00   0.01  -0.02    -0.04  -0.01   0.11
   6   6    -0.01  -0.03   0.34     0.01  -0.01  -0.09     0.04   0.05  -0.04
   7   6     0.00   0.07  -0.29     0.03   0.03   0.16    -0.07  -0.15  -0.09
   8   6    -0.06  -0.01   0.23    -0.03  -0.09  -0.20     0.14   0.17   0.23
   9   6     0.04  -0.00  -0.13     0.03   0.06   0.14    -0.10  -0.14  -0.21
  10   1    -0.05  -0.00   0.05     0.02  -0.06   0.09     0.05  -0.05   0.03
  11   1    -0.02   0.02   0.05    -0.20   0.01   0.14    -0.14   0.00   0.07
  12   1     0.12  -0.00  -0.02     0.23  -0.08  -0.04     0.10  -0.06  -0.02
  13   1     0.00   0.11   0.04    -0.15   0.16   0.07    -0.09   0.06   0.03
  14   1    -0.01  -0.03  -0.05     0.12  -0.09  -0.17     0.14  -0.03  -0.09
  15   1    -0.12  -0.00   0.07     0.04   0.12   0.14     0.17   0.11   0.05
  16   1     0.08  -0.10  -0.05    -0.03  -0.18  -0.05    -0.03  -0.05  -0.01
  17   1    -0.02   0.16   0.07    -0.18   0.03   0.03    -0.00  -0.01  -0.01
  18   1    -0.08  -0.08  -0.10     0.17   0.00  -0.08     0.17   0.05   0.00
  19   1     0.11  -0.17  -0.09    -0.17  -0.09  -0.01    -0.00   0.06   0.03
  20   1    -0.20  -0.03   0.11     0.13   0.06   0.01     0.20   0.08  -0.02
  21   1     0.18  -0.05  -0.10     0.03  -0.04   0.03    -0.25   0.17  -0.01
  22   1    -0.11  -0.16   0.08    -0.11   0.13  -0.02     0.16  -0.09  -0.02
  23   1     0.07  -0.08   0.08     0.07   0.02  -0.07    -0.19   0.01   0.09
  24   1     0.05   0.17  -0.06    -0.12  -0.04   0.03     0.13   0.02  -0.02
  25   1    -0.13  -0.09   0.05     0.02   0.14  -0.04     0.08  -0.23   0.04
  26   1     0.04   0.02  -0.07    -0.00  -0.09   0.10    -0.10   0.21  -0.14
  27   1     0.04  -0.07   0.07    -0.03  -0.01  -0.06     0.02   0.08   0.08
  28   1    -0.01  -0.03   0.06    -0.05   0.10  -0.08     0.13  -0.19   0.13
  29   1    -0.10   0.13  -0.02     0.06  -0.15   0.02    -0.05   0.22  -0.03
                     37                     38                     39
                        a                      a                      a 
 Frequencies --  1257.1416              1260.9823              1277.0953
 Red. masses --     3.5672                 3.4986                 2.9688
 Frc consts  --     0.0000                 0.0000                 0.0000
 IR Inten    --     0.4046                 0.2316                 0.0058
 Raman Activ --     0.0000                 0.0000                 0.0000
 Depolar     --     0.0000                 0.0000                 0.0000
 Atom AN      X      Y      Z        X      Y      Z        X      Y      Z
   1   6     0.03   0.03   0.15    -0.03   0.12  -0.08     0.02  -0.03   0.07
   2   6    -0.09  -0.11  -0.14    -0.03  -0.10   0.01    -0.03   0.01  -0.05
   3   6    -0.19   0.04  -0.02    -0.05  -0.08   0.11    -0.04   0.07  -0.11
   4   6    -0.14  -0.13   0.14    -0.16   0.12  -0.14    -0.04  -0.03   0.08
   5   6    -0.09  -0.04  -0.14    -0.01  -0.17   0.05     0.04  -0.09   0.05
   6   6     0.08   0.08   0.10    -0.03   0.11   0.11    -0.06   0.08  -0.08
   7   6    -0.01  -0.09  -0.03    -0.12   0.05  -0.10    -0.10   0.17   0.15
   8   6     0.04  -0.02  -0.08    -0.11  -0.05  -0.01    -0.15  -0.01   0.03
   9   6    -0.01   0.02   0.07     0.07   0.08   0.04     0.03  -0.01  -0.15
  10   1     0.10  -0.01  -0.08     0.06  -0.04   0.02     0.01   0.01  -0.03
  11   1     0.02  -0.03  -0.07    -0.13   0.00   0.06     0.05  -0.01  -0.04
  12   1    -0.14  -0.00   0.03     0.09  -0.06  -0.02    -0.07   0.02   0.01
  13   1     0.33   0.08  -0.03    -0.20  -0.06  -0.00     0.16   0.04  -0.01
  14   1    -0.04  -0.02   0.02     0.33   0.10  -0.02    -0.11  -0.03   0.02
  15   1     0.18   0.12   0.05     0.21   0.04  -0.05    -0.12   0.00   0.05
  16   1     0.36   0.11   0.00     0.07   0.10   0.03     0.21   0.01  -0.02
  17   1     0.30   0.21   0.05     0.10  -0.07  -0.03    -0.19  -0.03   0.02
  18   1     0.24   0.04  -0.06     0.21   0.17   0.11     0.27   0.09  -0.02
  19   1     0.03  -0.06  -0.04     0.29   0.19   0.02    -0.08   0.01   0.02
  20   1     0.27   0.14   0.06    -0.16  -0.13  -0.07     0.01  -0.04  -0.05
  21   1    -0.08   0.12  -0.07     0.13  -0.03  -0.05     0.21  -0.13   0.02
  22   1    -0.09  -0.02   0.02     0.12  -0.16   0.02     0.03   0.02  -0.02
  23   1     0.05  -0.07   0.04     0.24  -0.16   0.04     0.35  -0.12  -0.07
  24   1    -0.16   0.12  -0.00     0.08   0.01  -0.02     0.12  -0.17   0.03
  25   1    -0.08   0.09  -0.02    -0.04   0.04   0.00     0.45  -0.25   0.00
  26   1     0.03  -0.03   0.02     0.19  -0.15   0.02    -0.17   0.07   0.02
  27   1    -0.02   0.02  -0.04     0.01  -0.08  -0.00     0.04  -0.08   0.07
  28   1    -0.01   0.03  -0.04    -0.06   0.08  -0.03     0.01  -0.05   0.07
  29   1     0.04  -0.06   0.01    -0.01  -0.06   0.01    -0.07   0.10  -0.03
                     40                     41                     42
                        a                      a                      a 
 Frequencies --  1282.5040              1286.2927              1289.5112
 Red. masses --     2.0869                 2.6533                 2.0058
 Frc consts  --     0.0000                 0.0000                 0.0000
 IR Inten    --     0.2636                 0.3529                 0.0772
 Raman Activ --     0.0000                 0.0000                 0.0000
 Depolar     --     0.0000                 0.0000                 0.0000
 Atom AN      X      Y      Z        X      Y      Z        X      Y      Z
   1   6    -0.02   0.04  -0.06     0.01  -0.08   0.02    -0.00  -0.01  -0.01
   2   6    -0.03   0.06  -0.10     0.06   0.09   0.00     0.03  -0.03   0.08
   3   6     0.01  -0.05   0.07     0.07   0.12  -0.11     0.04  -0.02   0.03
   4   6     0.02  -0.05   0.07     0.06  -0.07  -0.02    -0.06   0.08  -0.12
   5   6     0.00   0.03  -0.03     0.00   0.01   0.16     0.04   0.03  -0.02
   6   6     0.08  -0.08   0.08     0.05   0.08   0.07    -0.00   0.03   0.13
   7   6     0.11  -0.02   0.06    -0.09  -0.10  -0.16     0.10   0.02   0.05
   8   6     0.11  -0.03  -0.08    -0.01  -0.02  -0.04    -0.01  -0.07  -0.12
   9   6    -0.07  -0.06  -0.01     0.02   0.04   0.07    -0.03  -0.04  -0.03
  10   1     0.00  -0.00  -0.00    -0.06   0.03   0.00    -0.01  -0.01   0.02
  11   1    -0.05   0.01   0.03     0.06   0.00  -0.02     0.01   0.00   0.01
  12   1     0.05  -0.01  -0.01    -0.03   0.04   0.01     0.00  -0.00   0.00
  13   1    -0.29  -0.18  -0.03     0.02   0.00  -0.00     0.06   0.07   0.02
  14   1     0.30   0.17   0.05    -0.24  -0.08   0.01    -0.11  -0.08  -0.04
  15   1    -0.33  -0.17  -0.04    -0.29  -0.06   0.05     0.27   0.09  -0.01
  16   1     0.34   0.18   0.03    -0.01  -0.08  -0.03    -0.32  -0.11  -0.00
  17   1    -0.13  -0.01   0.02    -0.36  -0.12  -0.01     0.19  -0.01  -0.02
  18   1     0.12   0.01  -0.03     0.18   0.04  -0.01    -0.20  -0.02   0.05
  19   1     0.08   0.01  -0.01     0.03   0.10   0.05     0.07   0.03  -0.00
  20   1    -0.10  -0.03   0.03     0.04   0.00  -0.02    -0.10  -0.03   0.03
  21   1    -0.09   0.06  -0.00    -0.32   0.23  -0.03    -0.07   0.08  -0.04
  22   1    -0.13   0.04   0.02     0.30  -0.25   0.01     0.06  -0.11   0.03
  23   1    -0.02   0.04  -0.03     0.18  -0.18   0.08     0.30  -0.13  -0.02
  24   1    -0.35   0.15   0.02    -0.12   0.18  -0.03    -0.46   0.20   0.01
  25   1     0.08  -0.01  -0.02    -0.11   0.09  -0.01     0.25  -0.06  -0.03
  26   1    -0.30   0.16   0.02     0.14  -0.10   0.01    -0.34   0.13   0.06
  27   1    -0.02   0.07  -0.02    -0.01  -0.02  -0.03    -0.01   0.02  -0.02
  28   1     0.04  -0.05   0.00    -0.02   0.05  -0.04     0.02  -0.03   0.01
  29   1     0.02   0.04  -0.00     0.02  -0.07   0.01    -0.01   0.03  -0.01
                     43                     44                     45
                        a                      a                      a 
 Frequencies --  1298.7606              1324.2357              1349.1079
 Red. masses --     2.2894                 3.7228                 4.3206
 Frc consts  --     0.0000                 0.0000                 0.0000
 IR Inten    --     0.3949                 0.1530                 0.0747
 Raman Activ --     0.0000                 0.0000                 0.0000
 Depolar     --     0.0000                 0.0000                 0.0000
 Atom AN      X      Y      Z        X      Y      Z        X      Y      Z
   1   6     0.02  -0.01   0.07     0.00   0.10   0.06     0.00   0.01   0.00
   2   6    -0.04  -0.06   0.03    -0.25  -0.13  -0.03    -0.03  -0.00  -0.00
   3   6    -0.08   0.06  -0.13    -0.10  -0.12  -0.05     0.01  -0.00  -0.01
   4   6    -0.00   0.10  -0.08     0.15   0.12   0.06    -0.01  -0.00   0.03
   5   6     0.01  -0.07   0.04     0.23   0.14   0.06     0.06  -0.07   0.04
   6   6     0.04  -0.13   0.05    -0.04  -0.04  -0.04    -0.30   0.18  -0.02
   7   6     0.09   0.00   0.01     0.01  -0.02  -0.04    -0.01   0.09  -0.05
   8   6     0.14  -0.01   0.00    -0.05   0.01  -0.00     0.33  -0.19   0.00
   9   6    -0.05  -0.04   0.02     0.02   0.01   0.00    -0.08  -0.06   0.06
  10   1     0.03  -0.00  -0.03     0.13  -0.04  -0.06     0.01  -0.00  -0.01
  11   1     0.04  -0.01  -0.04    -0.01  -0.01  -0.04     0.00  -0.00  -0.00
  12   1    -0.05   0.01   0.01     0.01  -0.05   0.01     0.00  -0.00   0.00
  13   1     0.27   0.14   0.01     0.31   0.12  -0.00     0.02   0.00  -0.00
  14   1    -0.15  -0.08  -0.03     0.33   0.13   0.00     0.03   0.01   0.00
  15   1     0.14   0.11   0.07     0.17   0.06   0.01    -0.03  -0.01   0.00
  16   1     0.01  -0.07  -0.03     0.18   0.08  -0.01     0.02   0.01  -0.00
  17   1    -0.27  -0.15  -0.03    -0.24  -0.11   0.00    -0.01   0.01   0.01
  18   1     0.28   0.16   0.06    -0.26  -0.09  -0.02     0.01  -0.00  -0.00
  19   1     0.30   0.17   0.02    -0.33  -0.12   0.01    -0.13  -0.04   0.01
  20   1    -0.36  -0.19  -0.04    -0.25  -0.10  -0.00     0.13   0.02  -0.05
  21   1     0.08  -0.08   0.03    -0.18   0.07   0.05     0.32  -0.19  -0.01
  22   1    -0.18   0.09   0.02     0.17  -0.08  -0.01     0.35  -0.18  -0.02
  23   1    -0.27   0.17  -0.02     0.03  -0.03   0.01     0.05  -0.02   0.03
  24   1    -0.07   0.04   0.00    -0.03   0.04  -0.01     0.05  -0.06  -0.01
  25   1    -0.14   0.07   0.00     0.01  -0.01  -0.00    -0.35   0.21   0.01
  26   1    -0.11   0.09  -0.02     0.05  -0.04   0.00    -0.34   0.20  -0.01
  27   1    -0.02   0.07  -0.02     0.00  -0.02   0.00    -0.05   0.14  -0.06
  28   1     0.02  -0.02  -0.01    -0.01   0.01   0.00    -0.01   0.02  -0.06
  29   1     0.02   0.02   0.01    -0.01  -0.01  -0.00     0.02   0.06   0.01
                     46                     47                     48
                        a                      a                      a 
 Frequencies --  1367.1398              1377.6675              1380.2769
 Red. masses --     4.7139                 5.4711                 5.5347
 Frc consts  --     0.0000                 0.0000                 0.0000
 IR Inten    --     1.8675                 1.7758                 0.3889
 Raman Activ --     0.0000                 0.0000                 0.0000
 Depolar     --     0.0000                 0.0000                 0.0000
 Atom AN      X      Y      Z        X      Y      Z        X      Y      Z
   1   6     0.01   0.07   0.04     0.02   0.02   0.01     0.03   0.02   0.01
   2   6    -0.33  -0.11   0.01    -0.15  -0.05   0.01    -0.15  -0.05   0.01
   3   6     0.24   0.05  -0.02     0.23   0.09   0.02     0.25   0.12   0.01
   4   6     0.15   0.02  -0.03    -0.22  -0.09  -0.02    -0.28  -0.12  -0.01
   5   6    -0.32  -0.12  -0.00     0.13   0.11  -0.01     0.23   0.03  -0.00
   6   6     0.05   0.06   0.03     0.23  -0.16  -0.02    -0.22   0.06   0.01
   7   6     0.01  -0.01   0.02    -0.28   0.16  -0.00     0.24  -0.14  -0.01
   8   6    -0.02   0.01  -0.01     0.18  -0.12   0.02    -0.15   0.11  -0.00
   9   6     0.00   0.00  -0.00    -0.04   0.01   0.01     0.03  -0.00  -0.01
  10   1     0.11  -0.03  -0.05     0.02  -0.00  -0.01     0.01   0.00  -0.00
  11   1     0.02  -0.00  -0.06    -0.01  -0.01  -0.02    -0.01  -0.01  -0.02
  12   1     0.04  -0.05   0.01    -0.00  -0.02   0.00    -0.01  -0.02   0.00
  13   1     0.31   0.10   0.01     0.12   0.04   0.01     0.12   0.03   0.00
  14   1     0.31   0.12  -0.01     0.11   0.04  -0.01     0.11   0.05  -0.01
  15   1    -0.22  -0.09   0.01    -0.17  -0.07  -0.01    -0.23  -0.09  -0.01
  16   1    -0.23  -0.07  -0.01    -0.21  -0.08  -0.00    -0.20  -0.09  -0.00
  17   1    -0.15  -0.04  -0.01     0.20   0.07   0.00     0.22   0.11   0.01
  18   1    -0.15  -0.06   0.01     0.15   0.06   0.01     0.29   0.11   0.02
  19   1     0.32   0.11  -0.00    -0.10  -0.05  -0.01    -0.19  -0.04   0.00
  20   1     0.32   0.14  -0.01    -0.20  -0.07   0.03    -0.11  -0.06   0.01
  21   1     0.11  -0.03  -0.04    -0.25   0.14   0.03     0.11  -0.08  -0.02
  22   1    -0.07   0.02   0.01    -0.20   0.11   0.00     0.19  -0.06  -0.01
  23   1     0.02  -0.01   0.00     0.23  -0.12  -0.00    -0.26   0.14  -0.00
  24   1    -0.03   0.00   0.01     0.26  -0.14  -0.00    -0.18   0.12  -0.00
  25   1     0.04  -0.02  -0.00    -0.16   0.10   0.01     0.11  -0.08  -0.00
  26   1    -0.00  -0.00   0.00    -0.14   0.08  -0.01     0.15  -0.08   0.01
  27   1     0.00  -0.01   0.00    -0.01   0.03  -0.01     0.01  -0.03   0.01
  28   1     0.00  -0.00   0.00     0.01   0.00  -0.03    -0.01  -0.00   0.02
  29   1    -0.00  -0.00  -0.00     0.02   0.02   0.00    -0.01  -0.02  -0.00
                     49                     50                     51
                        a                      a                      a 
 Frequencies --  1416.2166              1416.3419              1491.3423
 Red. masses --     3.1840                 3.1777                 1.9039
 Frc consts  --     0.0000                 0.0000                 0.0000
 IR Inten    --     0.7464                 0.9796                 0.6161
 Raman Activ --     0.0000                 0.0000                 0.0000
 Depolar     --     0.0000                 0.0000                 0.0000
 Atom AN      X      Y      Z        X      Y      Z        X      Y      Z
   1   6    -0.41   0.02   0.12    -0.09   0.00   0.03     0.00   0.00   0.00
   2   6     0.07   0.03   0.00     0.02   0.01   0.00     0.01   0.01   0.01
   3   6    -0.01   0.02   0.01    -0.00   0.00   0.00     0.02  -0.05  -0.05
   4   6    -0.02  -0.02  -0.01    -0.01  -0.00  -0.00    -0.02   0.01   0.01
   5   6     0.01   0.01  -0.00     0.01  -0.00   0.00    -0.05   0.13   0.13
   6   6     0.00  -0.00  -0.00    -0.03   0.01   0.01    -0.06  -0.13   0.11
   7   6    -0.00  -0.00   0.00     0.01   0.01  -0.01    -0.02  -0.00   0.00
   8   6    -0.02   0.01   0.00     0.07  -0.04  -0.00     0.03   0.05  -0.04
   9   6     0.05  -0.07   0.02    -0.23   0.34  -0.11    -0.00  -0.01   0.01
  10   1     0.38  -0.21  -0.24     0.08  -0.04  -0.05    -0.01   0.00   0.00
  11   1     0.44   0.13  -0.20     0.09   0.03  -0.04    -0.00  -0.00  -0.01
  12   1     0.50  -0.03   0.03     0.10  -0.01   0.01    -0.00  -0.01   0.00
  13   1    -0.06  -0.07  -0.00    -0.01  -0.02  -0.00     0.00  -0.03  -0.00
  14   1    -0.07  -0.04  -0.05    -0.02  -0.01  -0.01    -0.00  -0.01  -0.03
  15   1    -0.01   0.00   0.00     0.00   0.00   0.00    -0.01   0.05   0.16
  16   1    -0.01   0.00   0.00    -0.00   0.00   0.00    -0.06   0.16  -0.00
  17   1     0.03   0.01   0.00     0.01   0.00   0.00     0.01  -0.01   0.00
  18   1     0.03   0.01   0.00     0.01   0.00   0.00     0.02   0.01  -0.01
  19   1    -0.01  -0.00   0.00    -0.01  -0.00   0.00     0.18  -0.42  -0.03
  20   1    -0.01  -0.00   0.00     0.00  -0.00  -0.00     0.02  -0.11  -0.45
  21   1    -0.01   0.00   0.00     0.03  -0.02  -0.00     0.04   0.13  -0.42
  22   1    -0.00   0.00  -0.00     0.03  -0.01  -0.00     0.22   0.37   0.01
  23   1    -0.00  -0.00   0.00    -0.01   0.01  -0.01     0.01  -0.01   0.01
  24   1     0.00  -0.00   0.00    -0.01   0.01  -0.00    -0.00  -0.00   0.00
  25   1     0.02  -0.00   0.00    -0.09  -0.00  -0.00    -0.08  -0.15  -0.01
  26   1     0.02  -0.01  -0.01    -0.08   0.02   0.04    -0.02  -0.06   0.16
  27   1    -0.01   0.09  -0.05     0.07  -0.44   0.22     0.00  -0.01   0.00
  28   1    -0.08   0.06  -0.04     0.37  -0.27   0.20     0.01   0.02  -0.05
  29   1    -0.06   0.09   0.01     0.29  -0.41  -0.04     0.02   0.04   0.00
                     52                     53                     54
                        a                      a                      a 
 Frequencies --  1491.6922              1496.1464              1497.7421
 Red. masses --     1.9251                 1.9495                 1.8946
 Frc consts  --     0.0000                 0.0000                 0.0000
 IR Inten    --     0.0066                 0.0397                 0.3243
 Raman Activ --     0.0000                 0.0000                 0.0000
 Depolar     --     0.0000                 0.0000                 0.0000
 Atom AN      X      Y      Z        X      Y      Z        X      Y      Z
   1   6    -0.01   0.01   0.01     0.00  -0.01  -0.01     0.01  -0.04  -0.03
   2   6     0.02  -0.05  -0.04    -0.02   0.01   0.01    -0.07   0.15   0.12
   3   6     0.02   0.02   0.00    -0.04   0.08   0.06    -0.04   0.03   0.03
   4   6    -0.06   0.14   0.12     0.04  -0.00  -0.02     0.02  -0.05  -0.04
   5   6    -0.02  -0.01  -0.00     0.04  -0.13  -0.10    -0.00   0.03   0.02
   6   6     0.02  -0.01  -0.00    -0.05  -0.13   0.10     0.03   0.03  -0.03
   7   6     0.08   0.14  -0.11    -0.03   0.02  -0.00     0.07   0.10  -0.08
   8   6    -0.01   0.03  -0.01     0.05   0.08  -0.06    -0.01   0.03  -0.01
   9   6    -0.01  -0.01   0.01    -0.01  -0.02   0.01    -0.02  -0.01   0.01
  10   1    -0.01   0.01   0.01     0.02  -0.01  -0.01     0.04  -0.02  -0.02
  11   1     0.01  -0.01  -0.05     0.00   0.02   0.04    -0.01   0.05   0.15
  12   1     0.02  -0.05  -0.00    -0.01   0.04   0.00    -0.06   0.15   0.00
  13   1    -0.06   0.14  -0.00     0.02  -0.02   0.00     0.19  -0.46   0.00
  14   1    -0.02   0.04   0.15     0.01  -0.00  -0.03     0.07  -0.13  -0.48
  15   1    -0.02  -0.01   0.00     0.04  -0.07  -0.25     0.03  -0.02  -0.09
  16   1    -0.02  -0.01   0.00     0.10  -0.24   0.00     0.05  -0.08   0.00
  17   1     0.17  -0.43  -0.00    -0.06   0.05   0.00    -0.05   0.15   0.00
  18   1     0.08  -0.11  -0.45    -0.03   0.01   0.06    -0.02   0.04   0.15
  19   1    -0.01   0.04   0.01    -0.15   0.36   0.02     0.03  -0.09  -0.01
  20   1     0.00   0.01   0.04    -0.03   0.07   0.37    -0.00  -0.02  -0.09
  21   1    -0.00   0.01  -0.02     0.04   0.10  -0.38    -0.02  -0.02   0.11
  22   1     0.00   0.02  -0.00     0.20   0.35   0.00    -0.06  -0.09  -0.00
  23   1    -0.09  -0.12   0.43     0.02  -0.01   0.01    -0.06  -0.09   0.32
  24   1    -0.22  -0.40  -0.03     0.03  -0.02  -0.00    -0.17  -0.29  -0.02
  25   1    -0.00  -0.03  -0.00    -0.13  -0.23  -0.02    -0.01  -0.05  -0.00
  26   1     0.02  -0.02   0.02    -0.04  -0.08   0.25     0.00  -0.02   0.05
  27   1     0.01  -0.03   0.02     0.01  -0.02   0.01     0.01  -0.03   0.03
  28   1     0.02   0.01  -0.04     0.02   0.03  -0.08     0.01   0.02  -0.06
  29   1     0.04   0.03   0.00     0.05   0.07   0.00     0.06   0.05   0.00
                     55                     56                     57
                        a                      a                      a 
 Frequencies --  1499.8350              1500.8014              1503.0912
 Red. masses --     1.9847                 1.8551                 1.8018
 Frc consts  --     0.0000                 0.0000                 0.0000
 IR Inten    --     0.1213                 0.1157                 0.0198
 Raman Activ --     0.0000                 0.0000                 0.0000
 Depolar     --     0.0000                 0.0000                 0.0000
 Atom AN      X      Y      Z        X      Y      Z        X      Y      Z
   1   6    -0.00  -0.03  -0.02     0.01   0.00   0.00     0.01  -0.00  -0.00
   2   6    -0.04   0.01   0.02    -0.01   0.06   0.04    -0.04   0.11   0.08
   3   6    -0.06   0.16   0.13     0.02  -0.08  -0.06     0.02  -0.04  -0.04
   4   6    -0.02   0.09   0.07     0.01  -0.00  -0.00    -0.05   0.11   0.09
   5   6    -0.04   0.05   0.06     0.02  -0.06  -0.05    -0.00  -0.03  -0.02
   6   6    -0.02  -0.02   0.02    -0.04  -0.09   0.07     0.00   0.02  -0.01
   7   6    -0.02  -0.06   0.04     0.00   0.01  -0.01    -0.05  -0.08   0.06
   8   6    -0.03  -0.08   0.06    -0.07  -0.14   0.11     0.05   0.06  -0.04
   9   6     0.02   0.02  -0.01     0.01   0.03  -0.02     0.03   0.02   0.01
  10   1     0.05  -0.03  -0.03    -0.02   0.01   0.01    -0.01   0.01   0.00
  11   1     0.01   0.04   0.11    -0.01  -0.01  -0.01    -0.02  -0.00   0.02
  12   1    -0.02   0.11   0.00    -0.01  -0.01   0.00    -0.02   0.02   0.00
  13   1     0.04  -0.06   0.00     0.06  -0.17   0.00     0.12  -0.32   0.00
  14   1     0.02  -0.01  -0.06     0.01  -0.05  -0.17     0.04  -0.09  -0.33
  15   1     0.06  -0.13  -0.46    -0.03   0.07   0.24    -0.03   0.05   0.18
  16   1     0.18  -0.45   0.01    -0.08   0.23  -0.00    -0.07   0.18   0.00
  17   1     0.07  -0.22  -0.00    -0.01  -0.01  -0.00     0.15  -0.36  -0.01
  18   1     0.03  -0.05  -0.22     0.00  -0.00  -0.00     0.06  -0.10  -0.37
  19   1     0.08  -0.18  -0.01    -0.08   0.18   0.01    -0.03   0.11   0.01
  20   1     0.02  -0.04  -0.19    -0.02   0.04   0.19     0.01   0.03   0.10
  21   1     0.01   0.02  -0.08     0.03   0.08  -0.28     0.01  -0.03   0.06
  22   1     0.05   0.07   0.00     0.14   0.26   0.00    -0.02  -0.06  -0.00
  23   1     0.02   0.04  -0.14    -0.02  -0.02   0.07     0.05   0.09  -0.27
  24   1     0.06   0.14   0.01    -0.03  -0.07  -0.00     0.15   0.25   0.01
  25   1     0.12   0.23   0.02     0.23   0.41   0.03    -0.12  -0.17  -0.01
  26   1     0.04   0.08  -0.24     0.08   0.15  -0.44    -0.05  -0.05   0.19
  27   1    -0.01   0.03  -0.04    -0.01   0.02  -0.02    -0.03   0.00  -0.10
  28   1    -0.02  -0.03   0.10    -0.02  -0.04   0.11     0.02  -0.02   0.04
  29   1    -0.08  -0.09  -0.01    -0.06  -0.10  -0.01    -0.11  -0.03  -0.00
                     58                     59                     60
                        a                      a                      a 
 Frequencies --  1504.9190              1505.2425              1507.9547
 Red. masses --     1.5324                 1.5371                 1.6594
 Frc consts  --     0.0000                 0.0000                 0.0000
 IR Inten    --     2.2928                 2.3946                 1.0249
 Raman Activ --     0.0000                 0.0000                 0.0000
 Depolar     --     0.0000                 0.0000                 0.0000
 Atom AN      X      Y      Z        X      Y      Z        X      Y      Z
   1   6    -0.04   0.12  -0.17    -0.00  -0.00   0.00     0.05   0.17   0.10
   2   6    -0.01   0.03  -0.04     0.00  -0.01  -0.01     0.01   0.09   0.06
   3   6     0.00  -0.00   0.00    -0.00   0.00   0.00    -0.04   0.03   0.03
   4   6     0.00  -0.00   0.00     0.01  -0.02  -0.01     0.01   0.01   0.00
   5   6     0.00  -0.00  -0.00     0.00   0.00   0.00    -0.00   0.01   0.01
   6   6    -0.00  -0.00   0.00     0.00  -0.00  -0.00    -0.00   0.00   0.00
   7   6    -0.00  -0.00   0.00     0.01   0.01  -0.01     0.00  -0.01   0.00
   8   6     0.00   0.00   0.00     0.01   0.02   0.04    -0.02  -0.01   0.01
   9   6     0.00   0.00   0.00     0.06   0.10   0.18    -0.04  -0.02   0.02
  10   1     0.15  -0.40   0.58     0.00   0.00  -0.00    -0.24   0.13   0.15
  11   1     0.38   0.23   0.15     0.00  -0.00  -0.00    -0.05  -0.21  -0.56
  12   1    -0.34  -0.32  -0.03     0.00   0.00   0.00     0.10  -0.59  -0.00
  13   1     0.02  -0.01  -0.01    -0.01   0.03  -0.00     0.03  -0.15   0.01
  14   1    -0.02   0.01   0.01    -0.00   0.01   0.03    -0.01  -0.04  -0.15
  15   1    -0.02  -0.01   0.00     0.00  -0.00  -0.01     0.03  -0.03  -0.13
  16   1     0.02   0.01  -0.00     0.01  -0.01  -0.00     0.06  -0.12  -0.00
  17   1    -0.00  -0.00   0.00    -0.02   0.05   0.00    -0.01   0.00   0.00
  18   1     0.00  -0.00  -0.00    -0.01   0.01   0.05    -0.01   0.00   0.01
  19   1    -0.00   0.00   0.00     0.00  -0.01  -0.00     0.01  -0.03  -0.00
  20   1     0.00   0.00   0.00    -0.00  -0.00  -0.01     0.00  -0.01  -0.03
  21   1     0.00   0.00  -0.00     0.00  -0.00   0.00     0.00  -0.00   0.00
  22   1     0.00   0.00   0.00    -0.00   0.01  -0.00     0.00  -0.00   0.00
  23   1     0.00   0.00  -0.00    -0.03  -0.01   0.05     0.00   0.01  -0.02
  24   1     0.00   0.00   0.00    -0.01  -0.05  -0.00     0.01   0.02   0.00
  25   1    -0.00  -0.00  -0.00     0.02  -0.01   0.01     0.03   0.03   0.00
  26   1    -0.00   0.00   0.00    -0.00   0.02  -0.02     0.01   0.01  -0.04
  27   1    -0.00   0.00  -0.00    -0.20  -0.34  -0.59     0.01  -0.06   0.03
  28   1     0.00  -0.00   0.00     0.42  -0.14  -0.16     0.05   0.03  -0.12
  29   1    -0.01  -0.00  -0.00    -0.45   0.08   0.02     0.09   0.10   0.01
                     61                     62                     63
                        a                      a                      a 
 Frequencies --  1508.1473              2955.3063              2956.3094
 Red. masses --     1.6545                 1.8911                 1.8971
 Frc consts  --     0.0000                 0.0000                 0.0000
 IR Inten    --     1.2867                 5.2727                10.4795
 Raman Activ --     0.0000                 0.0000                 0.0000
 Depolar     --     0.0000                 0.0000                 0.0000
 Atom AN      X      Y      Z        X      Y      Z        X      Y      Z
   1   6    -0.01  -0.04  -0.02     0.00  -0.00   0.00     0.00  -0.00   0.00
   2   6    -0.01  -0.01  -0.01    -0.02   0.05  -0.06    -0.02   0.04  -0.05
   3   6     0.01  -0.01  -0.01     0.03  -0.08   0.13     0.02  -0.06   0.09
   4   6    -0.01   0.02   0.02    -0.02   0.05  -0.11    -0.01   0.03  -0.05
   5   6    -0.00  -0.00  -0.00     0.03  -0.07   0.06     0.01  -0.03   0.07
   6   6    -0.01   0.01  -0.00     0.05   0.08   0.09    -0.07  -0.11  -0.16
   7   6    -0.00  -0.04   0.03    -0.02  -0.03  -0.07     0.02   0.04   0.09
   8   6    -0.08  -0.05   0.06     0.01   0.01   0.03    -0.01  -0.01  -0.03
   9   6    -0.16  -0.07   0.09    -0.00  -0.00  -0.00     0.00   0.00   0.00
  10   1     0.05  -0.03  -0.03     0.00  -0.00   0.00     0.00   0.00   0.00
  11   1     0.01   0.05   0.13    -0.01   0.01  -0.00    -0.01   0.01  -0.00
  12   1    -0.03   0.13   0.00     0.00  -0.00  -0.01     0.00  -0.00  -0.01
  13   1     0.01   0.00  -0.00    -0.00   0.00   0.19    -0.00   0.00   0.15
  14   1     0.01   0.00   0.00     0.07  -0.19   0.06     0.06  -0.15   0.05
  15   1    -0.01   0.01   0.04    -0.12   0.31  -0.10    -0.09   0.23  -0.07
  16   1    -0.02   0.04   0.00     0.01  -0.01  -0.39     0.01  -0.00  -0.25
  17   1     0.03  -0.07  -0.00    -0.01  -0.01   0.37    -0.00  -0.00   0.17
  18   1     0.01  -0.02  -0.08     0.07  -0.19   0.05     0.04  -0.11   0.03
  19   1     0.00   0.01   0.00    -0.00  -0.00  -0.15    -0.00   0.02  -0.25
  20   1     0.00   0.00   0.01    -0.12   0.27  -0.07    -0.03   0.08  -0.01
  21   1     0.00  -0.01   0.01    -0.19  -0.30  -0.11     0.26   0.43   0.15
  22   1    -0.00  -0.02   0.00    -0.00   0.01  -0.21     0.00  -0.02   0.45
  23   1     0.02   0.04  -0.12     0.07   0.12   0.04    -0.09  -0.17  -0.06
  24   1     0.06   0.12   0.00    -0.01  -0.01   0.24     0.01   0.02  -0.30
  25   1     0.10   0.11   0.02     0.00   0.01  -0.09    -0.00  -0.01   0.10
  26   1     0.05   0.03  -0.14    -0.03  -0.05  -0.02     0.03   0.06   0.02
  27   1     0.04  -0.28   0.13    -0.00  -0.00  -0.00    -0.00   0.00   0.00
  28   1     0.21   0.12  -0.54     0.00   0.01   0.00    -0.00  -0.01  -0.00
  29   1     0.40   0.44   0.03     0.00  -0.00   0.01    -0.00   0.00  -0.00
                     64                     65                     66
                        a                      a                      a 
 Frequencies --  2957.3015              2961.0820              2965.7143
 Red. masses --     1.9355                 1.9248                 1.9113
 Frc consts  --     0.0000                 0.0000                 0.0000
 IR Inten    --     7.3503                 1.1666                 1.6136
 Raman Activ --     0.0000                 0.0000                 0.0000
 Depolar     --     0.0000                 0.0000                 0.0000
 Atom AN      X      Y      Z        X      Y      Z        X      Y      Z
   1   6    -0.00   0.00  -0.00    -0.00   0.00  -0.00    -0.00   0.01  -0.02
   2   6     0.02  -0.06   0.09     0.00  -0.01   0.02     0.04  -0.10   0.16
   3   6    -0.03   0.08  -0.10    -0.00   0.01  -0.00     0.01  -0.03   0.04
   4   6    -0.01   0.03  -0.05    -0.00   0.00  -0.03    -0.01   0.05  -0.16
   5   6     0.06  -0.15   0.16     0.01  -0.03  -0.00    -0.04   0.08  -0.05
   6   6     0.00   0.00  -0.04     0.05   0.07   0.07    -0.02  -0.03   0.02
   7   6    -0.00  -0.00  -0.02     0.02   0.03   0.12    -0.00  -0.00   0.01
   8   6     0.00   0.01   0.02    -0.07  -0.11  -0.19     0.01   0.01   0.01
   9   6     0.00  -0.00  -0.00     0.01   0.01   0.01    -0.00  -0.00  -0.00
  10   1    -0.00   0.00  -0.00    -0.00  -0.00  -0.00    -0.00   0.00  -0.00
  11   1     0.01  -0.02   0.00     0.00  -0.00   0.00     0.02  -0.05   0.01
  12   1    -0.00   0.00   0.02    -0.00   0.00   0.01    -0.00   0.00   0.06
  13   1     0.01  -0.00  -0.25     0.00  -0.00  -0.04     0.01  -0.00  -0.47
  14   1    -0.09   0.22  -0.07    -0.01   0.03  -0.01    -0.15   0.38  -0.12
  15   1     0.11  -0.28   0.09     0.01  -0.03   0.01    -0.04   0.10  -0.03
  16   1    -0.01   0.01   0.28    -0.00   0.00  -0.00     0.01  -0.00  -0.12
  17   1    -0.00  -0.00   0.15    -0.00  -0.00   0.10    -0.01  -0.02   0.54
  18   1     0.04  -0.11   0.03     0.01  -0.02   0.00     0.06  -0.15   0.03
  19   1    -0.00   0.02  -0.45     0.00  -0.01   0.05    -0.00   0.00   0.07
  20   1    -0.22   0.51  -0.13    -0.05   0.12  -0.04     0.13  -0.30   0.08
  21   1    -0.02  -0.03  -0.02    -0.16  -0.26  -0.10     0.08   0.13   0.06
  22   1     0.00   0.00   0.18     0.00   0.01  -0.14    -0.01  -0.01  -0.14
  23   1     0.01   0.01   0.00    -0.08  -0.14  -0.04     0.00   0.01   0.00
  24   1    -0.00  -0.00   0.08     0.01   0.02  -0.39     0.00   0.00  -0.05
  25   1     0.00   0.00  -0.06    -0.02  -0.04   0.53     0.00   0.00  -0.00
  26   1    -0.02  -0.03  -0.01     0.25   0.44   0.18    -0.03  -0.05  -0.02
  27   1    -0.00  -0.00   0.00    -0.00   0.00   0.00     0.00   0.00  -0.00
  28   1     0.00   0.00   0.00    -0.03  -0.05  -0.02     0.00   0.00   0.00
  29   1     0.00  -0.00   0.00     0.00   0.01  -0.05    -0.00  -0.00   0.00
                     67                     68                     69
                        a                      a                      a 
 Frequencies --  2971.6864              2973.7867              2974.1571
 Red. masses --     1.7072                 1.7720                 1.5569
 Frc consts  --     0.0000                 0.0000                 0.0000
 IR Inten    --    32.0295                39.3929                 5.6979
 Raman Activ --     0.0000                 0.0000                 0.0000
 Depolar     --     0.0000                 0.0000                 0.0000
 Atom AN      X      Y      Z        X      Y      Z        X      Y      Z
   1   6     0.00  -0.00   0.01     0.00  -0.01   0.01    -0.00   0.01  -0.01
   2   6    -0.02   0.04  -0.03    -0.04   0.11  -0.06     0.00  -0.01   0.08
   3   6     0.00  -0.00  -0.06    -0.01   0.03  -0.13     0.05  -0.13  -0.01
   4   6     0.00  -0.00  -0.02     0.01  -0.01  -0.10    -0.00  -0.00   0.06
   5   6    -0.02   0.04   0.08    -0.02   0.06   0.03    -0.02   0.05   0.04
   6   6    -0.04  -0.07   0.05     0.02   0.04   0.04     0.04   0.07  -0.07
   7   6    -0.00  -0.01  -0.15     0.00   0.00   0.10    -0.01  -0.01  -0.03
   8   6    -0.03  -0.06  -0.12     0.03   0.04   0.06    -0.03  -0.05   0.01
   9   6     0.00   0.01   0.02    -0.00  -0.00  -0.01     0.01   0.00   0.00
  10   1     0.00   0.00   0.00     0.01   0.00   0.01    -0.00  -0.00  -0.00
  11   1    -0.01   0.02  -0.00    -0.02   0.05  -0.02     0.01  -0.03   0.01
  12   1     0.00  -0.00  -0.02     0.00  -0.00  -0.04    -0.00   0.00   0.02
  13   1    -0.00   0.00   0.05    -0.01   0.01   0.05     0.00   0.01  -0.29
  14   1     0.06  -0.15   0.05     0.16  -0.40   0.14    -0.01   0.02   0.00
  15   1    -0.01   0.02  -0.01     0.03  -0.08   0.01    -0.19   0.50  -0.19
  16   1    -0.00  -0.01   0.22    -0.01  -0.01   0.45     0.00  -0.02   0.24
  17   1    -0.00  -0.00   0.07    -0.01  -0.02   0.40     0.01   0.01  -0.23
  18   1    -0.01   0.02  -0.01    -0.02   0.07  -0.04     0.01  -0.02   0.01
  19   1    -0.01   0.04  -0.36    -0.01   0.02  -0.20    -0.01   0.03  -0.22
  20   1     0.08  -0.19   0.07     0.10  -0.23   0.07     0.08  -0.18   0.06
  21   1     0.16   0.27   0.12    -0.08  -0.14  -0.05    -0.16  -0.27  -0.12
  22   1    -0.02  -0.01  -0.29    -0.00   0.00  -0.06     0.02   0.01   0.38
  23   1     0.01   0.01  -0.01    -0.00  -0.00   0.01     0.03   0.05   0.02
  24   1    -0.00  -0.01   0.54     0.00   0.01  -0.36    -0.00  -0.00   0.08
  25   1    -0.01  -0.02   0.30     0.00   0.01  -0.12    -0.00  -0.00  -0.13
  26   1     0.14   0.23   0.10    -0.10  -0.17  -0.07     0.10   0.18   0.09
  27   1     0.01   0.00   0.00    -0.00  -0.00  -0.00    -0.01   0.00   0.00
  28   1    -0.02  -0.03  -0.01     0.01   0.02   0.01    -0.01  -0.02  -0.01
  29   1     0.00   0.00  -0.06    -0.00  -0.00   0.04     0.00   0.00   0.00
                     70                     71                     72
                        a                      a                      a 
 Frequencies --  2976.6363              2979.5471              2981.7229
 Red. masses --     1.4892                 1.4891                 1.5559
 Frc consts  --     0.0000                 0.0000                 0.0000
 IR Inten    --    16.1160                 3.3666                20.6046
 Raman Activ --     0.0000                 0.0000                 0.0000
 Depolar     --     0.0000                 0.0000                 0.0000
 Atom AN      X      Y      Z        X      Y      Z        X      Y      Z
   1   6    -0.00   0.01  -0.00    -0.01  -0.01  -0.01     0.00   0.01   0.02
   2   6    -0.01   0.01   0.04    -0.04   0.10   0.08     0.03  -0.06  -0.08
   3   6     0.04  -0.09  -0.04     0.00   0.00  -0.00     0.02  -0.04  -0.08
   4   6    -0.01   0.03   0.04     0.01  -0.03  -0.02    -0.02   0.07  -0.03
   5   6     0.03  -0.07  -0.01     0.02  -0.06  -0.09     0.01  -0.02  -0.02
   6   6    -0.02  -0.04   0.07    -0.02  -0.03  -0.01    -0.02  -0.03   0.06
   7   6    -0.00  -0.01   0.04     0.02   0.04  -0.02     0.02   0.04   0.05
   8   6     0.05   0.09  -0.04    -0.03  -0.06   0.04    -0.04  -0.07   0.09
   9   6    -0.01  -0.00   0.00     0.01   0.00  -0.00     0.01   0.00  -0.01
  10   1    -0.00   0.00  -0.00     0.03   0.03   0.02    -0.02  -0.03  -0.01
  11   1     0.01  -0.02   0.01    -0.01   0.03  -0.01     0.01  -0.03   0.01
  12   1    -0.00   0.00   0.00    -0.00  -0.00   0.03     0.00   0.00  -0.06
  13   1     0.00   0.01  -0.19    -0.00   0.03  -0.48    -0.00  -0.02   0.38
  14   1     0.02  -0.06   0.03     0.16  -0.41   0.16    -0.09   0.24  -0.10
  15   1    -0.15   0.37  -0.15     0.00  -0.00  -0.00    -0.07   0.16  -0.07
  16   1     0.00  -0.02   0.29    -0.00  -0.00   0.03    -0.00  -0.02   0.34
  17   1     0.00   0.02  -0.23     0.00  -0.01   0.12    -0.00   0.01   0.02
  18   1     0.06  -0.15   0.06    -0.04   0.10  -0.04     0.10  -0.26   0.08
  19   1     0.01  -0.02   0.12     0.01  -0.04   0.39     0.01  -0.01   0.12
  20   1    -0.11   0.26  -0.08    -0.10   0.24  -0.08    -0.03   0.08  -0.03
  21   1     0.10   0.16   0.07     0.08   0.13   0.05     0.07   0.12   0.06
  22   1    -0.01  -0.01  -0.33    -0.00  -0.00  -0.01    -0.01  -0.01  -0.26
  23   1     0.02   0.04   0.03    -0.09  -0.16  -0.08    -0.09  -0.15  -0.06
  24   1     0.00   0.00  -0.16     0.00   0.00   0.15     0.00   0.01  -0.10
  25   1     0.00  -0.00   0.33    -0.00   0.00  -0.28    -0.00   0.01  -0.47
  26   1    -0.19  -0.33  -0.17     0.13   0.22   0.12     0.15   0.26   0.14
  27   1     0.02   0.00  -0.01    -0.02  -0.00   0.01    -0.04  -0.00   0.01
  28   1     0.01   0.03   0.01    -0.00  -0.01  -0.01    -0.00  -0.01  -0.01
  29   1    -0.00   0.00  -0.02     0.00  -0.00   0.01     0.00  -0.00   0.05
                     73                     74                     75
                        a                      a                      a 
 Frequencies --  2983.7207              2989.2264              2995.8917
 Red. masses --     1.8989                 1.5424                 1.6330
 Frc consts  --     0.0000                 0.0000                 0.0000
 IR Inten    --   193.2758               102.3010               145.7135
 Raman Activ --     0.0000                 0.0000                 0.0000
 Depolar     --     0.0000                 0.0000                 0.0000
 Atom AN      X      Y      Z        X      Y      Z        X      Y      Z
   1   6    -0.00   0.00  -0.01     0.00   0.02   0.01     0.00   0.02   0.00
   2   6     0.01  -0.02   0.05     0.02  -0.04  -0.04     0.01  -0.03  -0.01
   3   6     0.01  -0.03   0.08     0.02  -0.04  -0.04     0.02  -0.05  -0.00
   4   6     0.04  -0.11   0.09     0.03  -0.08  -0.05     0.05  -0.15   0.00
   5   6     0.00  -0.01   0.12     0.01  -0.02  -0.06     0.02  -0.05  -0.00
   6   6     0.01   0.01   0.11     0.02   0.03  -0.05    -0.02  -0.04  -0.01
   7   6     0.05   0.09   0.09     0.06   0.11  -0.03    -0.07  -0.12  -0.02
   8   6     0.01   0.01   0.07     0.03   0.05  -0.03    -0.02  -0.04  -0.00
   9   6    -0.00  -0.01  -0.01    -0.02  -0.01   0.01     0.02   0.02  -0.00
  10   1     0.00   0.01   0.00    -0.02  -0.03  -0.01    -0.02  -0.02  -0.01
  11   1     0.01  -0.02   0.01     0.01  -0.03   0.01     0.02  -0.04   0.02
  12   1    -0.00  -0.00   0.04     0.00   0.00  -0.04     0.00   0.00  -0.02
  13   1     0.00   0.00  -0.15     0.00  -0.01   0.22     0.00  -0.01   0.09
  14   1    -0.03   0.07  -0.02    -0.07   0.17  -0.07    -0.05   0.13  -0.05
  15   1    -0.03   0.09  -0.02    -0.06   0.16  -0.07    -0.06   0.16  -0.06
  16   1     0.01   0.00  -0.25    -0.00  -0.01   0.22     0.00  -0.01   0.07
  17   1     0.01  -0.01  -0.18    -0.00  -0.03   0.29     0.00  -0.03   0.19
  18   1    -0.15   0.39  -0.13    -0.12   0.31  -0.12    -0.21   0.55  -0.19
  19   1    -0.01   0.04  -0.42     0.01  -0.02   0.23     0.00  -0.01   0.05
  20   1    -0.00   0.00   0.01    -0.03   0.08  -0.03    -0.07   0.17  -0.05
  21   1    -0.01  -0.01   0.01    -0.06  -0.11  -0.05     0.08   0.14   0.06
  22   1    -0.01  -0.00  -0.39     0.01   0.00   0.23    -0.00  -0.01  -0.02
  23   1    -0.20  -0.36  -0.15    -0.22  -0.40  -0.19     0.25   0.46   0.21
  24   1     0.01   0.02  -0.15     0.01   0.01   0.30    -0.01  -0.01  -0.15
  25   1     0.00   0.01  -0.22     0.00  -0.00   0.21    -0.00  -0.00  -0.05
  26   1    -0.03  -0.05  -0.01    -0.10  -0.17  -0.09     0.07   0.12   0.06
  27   1    -0.01  -0.00  -0.00     0.05   0.00  -0.02    -0.04   0.00   0.02
  28   1     0.02   0.03   0.01     0.02   0.04   0.02    -0.03  -0.06  -0.03
  29   1    -0.00  -0.00   0.04    -0.00   0.00  -0.05     0.00   0.00   0.02
                     76                     77                     78
                        a                      a                      a 
 Frequencies --  3029.4115              3030.3120              3031.9958
 Red. masses --     1.9571                 1.9581                 1.9146
 Frc consts  --     0.0000                 0.0000                 0.0000
 IR Inten    --    58.8716                59.0028                59.7196
 Raman Activ --     0.0000                 0.0000                 0.0000
 Depolar     --     0.0000                 0.0000                 0.0000
 Atom AN      X      Y      Z        X      Y      Z        X      Y      Z
   1   6    -0.00  -0.00  -0.01    -0.06   0.14  -0.25    -0.02  -0.06  -0.05
   2   6    -0.00   0.00  -0.00    -0.01   0.02  -0.04     0.00  -0.01  -0.01
   3   6    -0.00   0.00   0.00    -0.00   0.01  -0.01     0.00  -0.00  -0.00
   4   6    -0.00   0.00   0.00    -0.00   0.00  -0.00    -0.00   0.00  -0.00
   5   6    -0.00   0.00   0.00    -0.00   0.00  -0.00    -0.00   0.00  -0.00
   6   6     0.00   0.00   0.00    -0.00  -0.00  -0.00     0.00   0.00  -0.00
   7   6     0.01   0.01   0.01    -0.00  -0.00  -0.00     0.01   0.01  -0.01
   8   6     0.01   0.02   0.04    -0.00  -0.00  -0.00     0.01   0.02  -0.02
   9   6     0.10   0.15   0.23    -0.02  -0.01   0.00     0.20   0.10  -0.16
  10   1     0.01   0.01   0.01     0.02   0.06  -0.02     0.12   0.15   0.07
  11   1    -0.00   0.00  -0.00     0.22  -0.55   0.17    -0.04   0.09  -0.04
  12   1    -0.00  -0.00   0.03    -0.02   0.00   0.71    -0.01  -0.01   0.16
  13   1     0.00  -0.00   0.00     0.00  -0.00   0.09     0.00  -0.00   0.03
  14   1     0.00  -0.00   0.00     0.03  -0.07   0.02    -0.01   0.02  -0.01
  15   1     0.00  -0.00   0.00     0.01  -0.02   0.01    -0.00   0.01  -0.00
  16   1     0.00   0.00  -0.00     0.00   0.00   0.03     0.00  -0.00   0.02
  17   1    -0.00   0.00  -0.01    -0.00  -0.00   0.01    -0.00  -0.00   0.01
  18   1     0.00  -0.01   0.00     0.00  -0.01   0.00     0.00  -0.01   0.00
  19   1    -0.00   0.00  -0.01     0.00  -0.00   0.01     0.00  -0.00   0.01
  20   1     0.00  -0.00   0.00     0.00  -0.00   0.00     0.00  -0.00   0.00
  21   1    -0.01  -0.01  -0.00     0.00   0.00   0.00    -0.01  -0.01  -0.00
  22   1    -0.00   0.00  -0.01    -0.00  -0.00   0.00     0.00   0.00   0.02
  23   1    -0.02  -0.04  -0.02     0.00   0.00   0.00    -0.03  -0.05  -0.02
  24   1     0.00   0.00  -0.02     0.00  -0.00   0.00    -0.00   0.00   0.05
  25   1     0.00   0.00  -0.08    -0.00  -0.00  -0.00    -0.00  -0.00   0.09
  26   1    -0.05  -0.08  -0.04     0.00   0.00   0.00    -0.03  -0.05  -0.03
  27   1    -0.03   0.02   0.05     0.04   0.00  -0.01    -0.57  -0.01   0.19
  28   1    -0.33  -0.59  -0.25     0.02   0.04   0.02    -0.16  -0.32  -0.18
  29   1     0.02   0.05  -0.60    -0.00  -0.00  -0.02     0.03  -0.01   0.54
                     79                     80                     81
                        a                      a                      a 
 Frequencies --  3032.0477              3037.5583              3037.8409
 Red. masses --     1.9382                 1.2638                 1.2667
 Frc consts  --     0.0000                 0.0000                 0.0000
 IR Inten    --    72.2776                54.8713                 9.4368
 Raman Activ --     0.0000                 0.0000                 0.0000
 Depolar     --     0.0000                 0.0000                 0.0000
 Atom AN      X      Y      Z        X      Y      Z        X      Y      Z
   1   6     0.06   0.24   0.12    -0.10  -0.00   0.02     0.10   0.00  -0.02
   2   6    -0.01   0.03   0.01    -0.01   0.00   0.00     0.01  -0.00  -0.00
   3   6    -0.00   0.01   0.01    -0.00   0.00   0.00     0.00  -0.00  -0.00
   4   6    -0.00   0.01   0.00    -0.00   0.00   0.00     0.00   0.00   0.00
   5   6    -0.00   0.00   0.00    -0.00   0.00  -0.00     0.00  -0.00  -0.00
   6   6     0.00   0.00   0.00     0.00   0.00  -0.00    -0.00  -0.00   0.00
   7   6     0.00   0.00  -0.00     0.00   0.00  -0.00     0.00   0.00  -0.00
   8   6     0.00   0.01  -0.00    -0.00   0.00  -0.00    -0.00   0.00  -0.00
   9   6     0.06   0.03  -0.04    -0.09   0.07  -0.01    -0.09   0.06  -0.01
  10   1    -0.40  -0.50  -0.25     0.24   0.33   0.17    -0.25  -0.35  -0.17
  11   1     0.19  -0.40   0.18     0.13  -0.34   0.12    -0.13   0.34  -0.13
  12   1     0.02   0.05  -0.34    -0.00   0.01  -0.36     0.00  -0.01   0.37
  13   1    -0.00   0.00  -0.07    -0.00   0.00  -0.01     0.00  -0.00   0.01
  14   1     0.03  -0.07   0.03     0.00  -0.01   0.00    -0.00   0.01  -0.00
  15   1     0.02  -0.04   0.02     0.00  -0.01   0.00    -0.00   0.01  -0.00
  16   1    -0.00   0.00  -0.04    -0.00   0.00  -0.01     0.00  -0.00   0.01
  17   1     0.00   0.00  -0.01     0.00   0.00  -0.00    -0.00  -0.00   0.00
  18   1     0.01  -0.02   0.01     0.00  -0.00   0.00    -0.00   0.00  -0.00
  19   1    -0.00   0.00  -0.01    -0.00   0.00  -0.00     0.00  -0.00   0.01
  20   1     0.00  -0.01   0.00     0.00  -0.00   0.00    -0.00   0.01  -0.00
  21   1    -0.00  -0.01  -0.00    -0.00  -0.00  -0.00     0.00   0.00   0.00
  22   1     0.00   0.00   0.00     0.00   0.00   0.00     0.00  -0.00  -0.00
  23   1    -0.01  -0.02  -0.01    -0.00  -0.01  -0.00    -0.00  -0.01  -0.00
  24   1    -0.00   0.00   0.01     0.00   0.00   0.01     0.00   0.00   0.01
  25   1     0.00   0.00   0.02    -0.00   0.00   0.01    -0.00   0.00   0.00
  26   1    -0.01  -0.02  -0.01    -0.00  -0.00  -0.00    -0.00   0.00  -0.00
  27   1    -0.18  -0.00   0.06     0.48   0.03  -0.18     0.48   0.03  -0.17
  28   1    -0.06  -0.11  -0.06    -0.16  -0.26  -0.13    -0.15  -0.25  -0.12
  29   1     0.01  -0.00   0.14    -0.01  -0.01   0.35    -0.01  -0.01   0.34
