 Entering Gaussian System
 *********************************************
 Gaussian 98:
 frequency output generated by the xtb code
 *********************************************
                         Standard orientation:
 --------------------------------------------------------------------
  Center     Atomic     Atomic              Coordinates (Angstroms)
  Number     Number      Type              X           Y           Z
 --------------------------------------------------------------------
    1          6             0       -4.744736   -0.614464    0.160503
    2          6             0       -3.308953   -0.775748   -0.323744
    3          6             0       -2.400084    0.331276    0.205786
    4          6             0       -0.958212    0.164368   -0.268085
    5          6             0       -0.042735    1.251695    0.290981
    6          6             0        1.386308    1.177500   -0.249097
    7          6             0        2.147412   -0.060466    0.220524
    8          6             0        3.598108   -0.055660   -0.256135
    9          6             0        4.344511   -1.306968    0.190972
   10          1             0       -5.372130   -1.414259   -0.226395
   11          1             0       -5.155531    0.336092   -0.172967
   12          1             0       -4.785614   -0.641399    1.247349
   13          1             0       -3.291065   -0.765159   -1.416019
   14          1             0       -2.923663   -1.744399    0.003165
   15          1             0       -2.781616    1.300123   -0.125453
   16          1             0       -2.423716    0.323918    1.298233
   17          1             0       -0.931232    0.197561   -1.359965
   18          1             0       -0.597209   -0.817026    0.043881
   19          1             0       -0.019946    1.179643    1.380946
   20          1             0       -0.462431    2.227875    0.034863
   21          1             0        1.930029    2.067464    0.078353
   22          1             0        1.359607    1.192469   -1.341335
   23          1             0        1.657228   -0.959469   -0.156661
   24          1             0        2.127536   -0.102634    1.312226
   25          1             0        3.618471    0.008058   -1.346604
   26          1             0        4.105601    0.828940    0.135652
   27          1             0        5.373802   -1.286453   -0.159761
   28          1             0        3.864646   -2.199112   -0.205995
   29          1             0        4.353086   -1.378750    1.276539
 --------------------------------------------------------------------
     1 basis functions        1 primitive gaussians
     1 alpha electrons        1 beta electrons
 
 Harmonic frequencies (cm**-1), IR intensities (KM/Mole),
 Raman scattering activities (A**4/amu), Raman depolarization ratios,
 reduced masses (AMU), force constants (mDyne/A) and normal coordinates:
                      1                      2                      3
                        a                      a                      a 
 Frequencies --    39.1826                47.7565                58.6729
 Red. masses --    99.0000                99.0000                99.0000
 Frc consts  --    99.0000                99.0000                99.0000
 IR Inten    --    99.0000                99.0000                99.0000
 Raman Activ --     0.0000                 0.0000                 0.0000
 Depolar     --     0.0000                 0.0000                 0.0000
 Atom AN      X      Y      Z        X      Y      Z        X      Y      Z
   1   6    -0.11   0.23  -0.35     0.15  -0.22   0.11     0.12  -0.23  -0.12
   2   6     0.05  -0.16   0.23     0.17  -0.13   0.13     0.17  -0.07  -0.02
   3   6    -0.04   0.04  -0.06     0.03   0.12  -0.14     0.01   0.06  -0.02
   4   6     0.06  -0.21   0.33     0.06   0.14  -0.06     0.05   0.14   0.06
   5   6    -0.01  -0.04   0.11     0.00   0.20  -0.09     0.00   0.17   0.07
   6   6    -0.03  -0.00   0.06     0.04   0.16   0.02     0.02   0.13   0.11
   7   6     0.02   0.00  -0.01    -0.14  -0.01  -0.14     0.02   0.21   0.30
   8   6     0.01   0.07  -0.06    -0.01   0.04   0.26    -0.17  -0.21  -0.27
   9   6     0.05   0.04  -0.21    -0.29  -0.26  -0.10    -0.21  -0.17  -0.07
  10   1    -0.01   0.02  -0.03     0.08  -0.12   0.09     0.07  -0.09  -0.04
  11   1     0.02   0.02  -0.30     0.00  -0.10  -0.04     0.00  -0.09  -0.06
  12   1    -0.14   0.25  -0.10     0.05   0.01   0.03     0.01  -0.05  -0.04
  13   1     0.12  -0.22   0.07     0.05  -0.11   0.04     0.07  -0.03  -0.01
  14   1    -0.04  -0.01   0.26     0.09   0.00   0.11     0.08  -0.00   0.01
  15   1     0.02  -0.03  -0.17    -0.02  -0.00  -0.11    -0.02   0.00  -0.03
  16   1    -0.08   0.15  -0.02     0.00   0.11  -0.04    -0.01   0.03  -0.01
  17   1     0.09  -0.18   0.09     0.03   0.01  -0.02     0.03   0.04   0.02
  18   1    -0.01  -0.03   0.22     0.02   0.05   0.02     0.02   0.05   0.02
  19   1     0.01   0.05   0.03    -0.02   0.09  -0.03    -0.01   0.06   0.02
  20   1    -0.03  -0.03  -0.01     0.00   0.05  -0.06     0.00   0.05   0.01
  21   1    -0.01   0.00   0.02     0.03   0.01   0.07     0.00   0.06  -0.01
  22   1    -0.02   0.01   0.02     0.04   0.11   0.01     0.01  -0.01   0.03
  23   1     0.01   0.00  -0.01    -0.02   0.04  -0.16    -0.07   0.04   0.24
  24   1     0.01  -0.02  -0.00    -0.13  -0.10  -0.04     0.12   0.18   0.09
  25   1    -0.01   0.05  -0.02     0.09   0.15   0.09    -0.17  -0.19  -0.09
  26   1     0.00   0.01   0.00    -0.00  -0.06   0.23     0.04  -0.04  -0.24
  27   1     0.01   0.03  -0.07    -0.05  -0.06   0.07    -0.10  -0.15  -0.15
  28   1     0.02   0.02  -0.08    -0.08  -0.00  -0.20    -0.16  -0.07   0.15
  29   1     0.02  -0.02  -0.06    -0.19  -0.23  -0.04     0.07   0.08  -0.01
                      4                      5                      6
                        a                      a                      a 
 Frequencies --   100.7493               120.2310               106.6313
 Red. masses --    99.0000                99.0000                99.0000
 Frc consts  --    99.0000                99.0000                99.0000
 IR Inten    --    99.0000                99.0000                99.0000
 Raman Activ --     0.0000                 0.0000                 0.0000
 Depolar     --     0.0000                 0.0000                 0.0000
 Atom AN      X      Y      Z        X      Y      Z        X      Y      Z
   1   6     0.01   0.01  -0.21    -0.06   0.19  -0.16     0.04  -0.09  -0.18
   2   6     0.06   0.06  -0.08     0.03  -0.20   0.26     0.14  -0.02   0.10
   3   6     0.11  -0.21   0.41     0.08  -0.24   0.24     0.01   0.05   0.18
   4   6     0.08  -0.13   0.31    -0.07   0.18  -0.38    -0.01   0.18   0.07
   5   6     0.02   0.15  -0.15    -0.01  -0.04  -0.07     0.06   0.07   0.17
   6   6    -0.03   0.06  -0.26     0.01   0.02  -0.02    -0.01   0.06  -0.00
   7   6    -0.04   0.13  -0.07     0.05   0.10   0.11    -0.16  -0.20  -0.45
   8   6     0.01   0.04   0.07     0.04   0.03   0.07    -0.09  -0.14  -0.23
   9   6    -0.20  -0.10   0.01    -0.05  -0.06  -0.04    -0.00   0.10   0.32
  10   1    -0.01   0.08  -0.19    -0.02   0.03   0.01     0.05  -0.05  -0.06
  11   1     0.05   0.06   0.05     0.04   0.03  -0.19     0.01  -0.05  -0.10
  12   1    -0.04  -0.14  -0.06    -0.10   0.19  -0.05    -0.05   0.01  -0.05
  13   1     0.05   0.14  -0.02     0.09  -0.13   0.08     0.10  -0.02   0.03
  14   1    -0.02  -0.03  -0.12    -0.06  -0.06   0.16     0.04   0.00   0.06
  15   1     0.05  -0.02   0.23    -0.06  -0.06   0.20    -0.03   0.01   0.08
  16   1     0.03  -0.19   0.12     0.15  -0.17   0.07     0.02  -0.01   0.05
  17   1    -0.02  -0.12   0.09    -0.13   0.23  -0.11    -0.03   0.11   0.02
  18   1     0.07   0.00   0.15     0.04   0.01  -0.31     0.01   0.04  -0.03
  19   1     0.04   0.16  -0.04    -0.01  -0.10  -0.03     0.05  -0.03   0.04
  20   1    -0.02   0.01  -0.13     0.01   0.02   0.06     0.02   0.04   0.11
  21   1     0.00   0.03  -0.14    -0.01   0.02  -0.02     0.04  -0.03   0.07
  22   1    -0.03  -0.05  -0.08     0.02  -0.02  -0.01    -0.03   0.12   0.00
  23   1     0.00   0.02  -0.00     0.01   0.01   0.07    -0.05  -0.00  -0.25
  24   1    -0.04   0.07  -0.02     0.02   0.07   0.03    -0.08  -0.18  -0.13
  25   1     0.04   0.05   0.02     0.00   0.03   0.02     0.03  -0.14  -0.07
  26   1     0.02  -0.02   0.06     0.03  -0.01   0.03    -0.08   0.01  -0.12
  27   1    -0.04  -0.05   0.05    -0.01  -0.03  -0.01     0.01   0.02   0.12
  28   1    -0.07   0.00  -0.06    -0.03   0.00  -0.03     0.04  -0.03   0.18
  29   1    -0.11  -0.08  -0.00    -0.02  -0.04  -0.01    -0.03   0.15   0.10
                      7                      8                      9
                        a                      a                      a 
 Frequencies --   233.5367               232.0171               153.2931
 Red. masses --    99.0000                99.0000                99.0000
 Frc consts  --    99.0000                99.0000                99.0000
 IR Inten    --    99.0000                99.0000                99.0000
 Raman Activ --     0.0000                 0.0000                 0.0000
 Depolar     --     0.0000                 0.0000                 0.0000
 Atom AN      X      Y      Z        X      Y      Z        X      Y      Z
   1   6     0.05   0.01   0.04    -0.09  -0.07  -0.02     0.10   0.29   0.17
   2   6    -0.03   0.14  -0.23    -0.07   0.04   0.01    -0.03  -0.12  -0.08
   3   6     0.06  -0.09   0.10    -0.05   0.03   0.04     0.19  -0.28  -0.16
   4   6     0.04  -0.05   0.07    -0.05  -0.01   0.02     0.20  -0.28  -0.08
   5   6    -0.01   0.03  -0.01     0.02  -0.03  -0.03    -0.07  -0.10   0.02
   6   6    -0.01  -0.02   0.01     0.03   0.03  -0.05     0.01   0.29   0.19
   7   6    -0.05  -0.03   0.02     0.06   0.01  -0.14    -0.05   0.14  -0.13
   8   6    -0.06  -0.01  -0.00     0.17   0.11   0.19    -0.06   0.02  -0.12
   9   6     0.00   0.03  -0.01    -0.01  -0.07  -0.01    -0.24  -0.00   0.12
  10   1     0.12  -0.29   0.45     0.01  -0.06   0.03    -0.07   0.15   0.07
  11   1    -0.20  -0.23  -0.37    -0.07  -0.05  -0.04     0.10   0.13   0.08
  12   1     0.15   0.48   0.03    -0.03   0.02  -0.00     0.08   0.08   0.05
  13   1    -0.05   0.14  -0.06    -0.02   0.02   0.00    -0.05  -0.03  -0.02
  14   1     0.00   0.01  -0.16    -0.01   0.01  -0.01    -0.06  -0.06  -0.04
  15   1     0.04   0.01   0.13    -0.01   0.01   0.02     0.08  -0.07  -0.04
  16   1     0.02  -0.13   0.03    -0.01   0.00   0.01     0.06  -0.08  -0.04
  17   1     0.00  -0.03   0.02    -0.02  -0.01   0.00     0.09  -0.10  -0.02
  18   1     0.03  -0.01   0.03    -0.02  -0.00   0.01     0.07  -0.07   0.01
  19   1    -0.01   0.04  -0.00     0.02  -0.01  -0.01    -0.05  -0.04   0.00
  20   1    -0.01  -0.00  -0.04     0.00  -0.01  -0.00    -0.08  -0.05   0.01
  21   1     0.00  -0.01  -0.00    -0.00   0.01   0.01    -0.04   0.06   0.18
  22   1    -0.00  -0.01   0.00     0.01   0.03  -0.01     0.05   0.20   0.06
  23   1    -0.02  -0.01   0.01     0.05   0.02  -0.13    -0.04   0.08  -0.09
  24   1    -0.01  -0.00   0.01    -0.05  -0.07  -0.04    -0.02  -0.03  -0.04
  25   1    -0.03  -0.01  -0.00     0.10   0.11   0.06    -0.01  -0.04  -0.04
  26   1    -0.02   0.00  -0.01     0.05  -0.01   0.14     0.00   0.01  -0.07
  27   1     0.01   0.04   0.02    -0.14  -0.29  -0.43    -0.08  -0.08   0.01
  28   1     0.03   0.00  -0.03    -0.34  -0.00   0.36    -0.13  -0.00   0.11
  29   1    -0.02  -0.01  -0.00     0.43   0.18   0.01    -0.05   0.08   0.04
                     10                     11                     12
                        a                      a                      a 
 Frequencies --   202.9902               260.1285               340.0288
 Red. masses --    99.0000                99.0000                99.0000
 Frc consts  --    99.0000                99.0000                99.0000
 IR Inten    --    99.0000                99.0000                99.0000
 Raman Activ --     0.0000                 0.0000                 0.0000
 Depolar     --     0.0000                 0.0000                 0.0000
 Atom AN      X      Y      Z        X      Y      Z        X      Y      Z
   1   6    -0.07  -0.08   0.01    -0.32  -0.16  -0.03    -0.00  -0.14  -0.09
   2   6    -0.06   0.04  -0.02    -0.24   0.03   0.07     0.14   0.35   0.21
   3   6    -0.08   0.09  -0.07    -0.13  -0.02   0.08     0.20   0.27   0.14
   4   6    -0.04  -0.03   0.05    -0.09  -0.03   0.00     0.02  -0.30  -0.19
   5   6     0.10  -0.26   0.29    -0.03   0.10  -0.23    -0.01  -0.35  -0.19
   6   6    -0.06   0.06  -0.23     0.21   0.22   0.24     0.03  -0.03   0.08
   7   6     0.23   0.29  -0.14     0.25   0.10  -0.06    -0.05  -0.02   0.07
   8   6     0.25   0.09  -0.08     0.26  -0.10  -0.14    -0.13   0.11  -0.03
   9   6    -0.22  -0.13   0.14     0.13  -0.14   0.05    -0.18   0.12  -0.01
  10   1     0.01  -0.07   0.05    -0.04  -0.09  -0.02     0.13  -0.10  -0.10
  11   1    -0.07  -0.06  -0.05    -0.14  -0.07  -0.03    -0.09  -0.08  -0.03
  12   1    -0.01   0.04   0.00    -0.12  -0.04  -0.01    -0.09  -0.08  -0.03
  13   1    -0.03   0.00  -0.01    -0.07   0.02   0.02     0.08   0.11   0.06
  14   1     0.00   0.02  -0.00    -0.07   0.00   0.00     0.07   0.11   0.05
  15   1    -0.01   0.02  -0.06    -0.03   0.00   0.04     0.12   0.10   0.04
  16   1    -0.05   0.06  -0.02    -0.02  -0.02   0.02     0.12   0.10   0.04
  17   1     0.01   0.05   0.02    -0.05  -0.06  -0.00    -0.04  -0.10  -0.05
  18   1    -0.06  -0.04  -0.03    -0.02   0.01   0.04    -0.05  -0.10  -0.05
  19   1     0.14  -0.23   0.07    -0.09   0.12  -0.06    -0.04  -0.12  -0.05
  20   1    -0.01  -0.05   0.26     0.01   0.01  -0.17    -0.04  -0.11  -0.04
  21   1    -0.04   0.07  -0.16     0.00   0.04   0.23    -0.04  -0.01   0.11
  22   1    -0.12  -0.04  -0.06     0.17   0.20   0.07     0.09   0.05   0.02
  23   1     0.07   0.05   0.03     0.03   0.06  -0.05    -0.02  -0.00   0.02
  24   1     0.08   0.14  -0.04     0.10  -0.02  -0.02    -0.00  -0.01   0.02
  25   1     0.11   0.01  -0.02     0.07  -0.08  -0.04    -0.06   0.03  -0.01
  26   1     0.12  -0.01  -0.01     0.11  -0.03  -0.08    -0.04   0.04  -0.02
  27   1    -0.02  -0.11   0.18     0.07  -0.03   0.13    -0.05   0.01   0.02
  28   1    -0.08   0.01  -0.05     0.09  -0.04  -0.05    -0.06   0.04  -0.01
  29   1    -0.22  -0.06   0.04    -0.08  -0.06   0.01    -0.07   0.04  -0.00
                     13                     14                     15
                        a                      a                      a 
 Frequencies --   402.6134               418.3946               512.7833
 Red. masses --    99.0000                99.0000                99.0000
 Frc consts  --    99.0000                99.0000                99.0000
 IR Inten    --    99.0000                99.0000                99.0000
 Raman Activ --     0.0000                 0.0000                 0.0000
 Depolar     --     0.0000                 0.0000                 0.0000
 Atom AN      X      Y      Z        X      Y      Z        X      Y      Z
   1   6     0.17   0.07   0.01    -0.37  -0.11   0.02    -0.11  -0.04  -0.00
   2   6     0.10  -0.08  -0.07    -0.26  -0.01   0.06    -0.01   0.16   0.12
   3   6    -0.13   0.01   0.04     0.16  -0.13  -0.13     0.30  -0.03  -0.10
   4   6    -0.15   0.09   0.04     0.32   0.09  -0.01     0.23  -0.02  -0.13
   5   6    -0.08   0.04  -0.08     0.33   0.13   0.08    -0.36   0.23   0.17
   6   6     0.01  -0.35   0.21     0.25  -0.11  -0.03    -0.41  -0.13   0.12
   7   6     0.26  -0.21   0.02    -0.02  -0.15   0.08     0.07  -0.01  -0.08
   8   6     0.17   0.28  -0.21    -0.14   0.14  -0.04     0.18  -0.01  -0.06
   9   6    -0.32   0.13   0.03    -0.23   0.17  -0.02     0.09  -0.10   0.03
  10   1    -0.01   0.05   0.03    -0.05  -0.06  -0.03     0.05  -0.06  -0.05
  11   1     0.09   0.04   0.01    -0.15  -0.05   0.00    -0.09  -0.04  -0.01
  12   1     0.09   0.04   0.00    -0.15  -0.05   0.00    -0.09  -0.04  -0.00
  13   1     0.03  -0.02  -0.02    -0.11  -0.02   0.02    -0.02   0.03   0.03
  14   1     0.04  -0.02  -0.02    -0.11  -0.02   0.01    -0.02   0.04   0.03
  15   1    -0.07  -0.01   0.02     0.06  -0.03  -0.03     0.13   0.01  -0.01
  16   1    -0.05  -0.01   0.01     0.06  -0.03  -0.04     0.14   0.01  -0.03
  17   1    -0.06   0.01   0.01     0.13   0.05  -0.00     0.12   0.03  -0.03
  18   1    -0.03   0.03   0.02     0.12   0.03  -0.01     0.13   0.02  -0.04
  19   1    -0.11   0.12  -0.01     0.12   0.03   0.02    -0.20   0.14   0.05
  20   1     0.07   0.02  -0.16     0.12   0.05   0.04    -0.09   0.04  -0.07
  21   1     0.01  -0.10   0.06     0.14  -0.06  -0.06    -0.07  -0.01  -0.12
  22   1     0.03  -0.10   0.06     0.05  -0.08  -0.01    -0.24  -0.12   0.03
  23   1     0.14  -0.09  -0.01     0.01  -0.05   0.02     0.07  -0.03  -0.02
  24   1     0.14  -0.11   0.00     0.00  -0.04   0.02     0.05  -0.03  -0.02
  25   1     0.04   0.08  -0.06    -0.06   0.05  -0.01     0.08  -0.01  -0.02
  26   1     0.04   0.08  -0.05    -0.06   0.05  -0.01     0.06  -0.02  -0.00
  27   1    -0.06  -0.14   0.09    -0.06   0.01   0.01     0.03  -0.06   0.02
  28   1    -0.20   0.09   0.02    -0.09   0.06  -0.00     0.01  -0.02   0.01
  29   1    -0.19   0.09   0.01    -0.09   0.06  -0.00     0.01  -0.02   0.01
                     16                     17                     18
                        a                      a                      a 
 Frequencies --   773.9195               765.6462               791.4442
 Red. masses --    99.0000                99.0000                99.0000
 Frc consts  --    99.0000                99.0000                99.0000
 IR Inten    --    99.0000                99.0000                99.0000
 Raman Activ --     0.0000                 0.0000                 0.0000
 Depolar     --     0.0000                 0.0000                 0.0000
 Atom AN      X      Y      Z        X      Y      Z        X      Y      Z
   1   6    -0.00  -0.01   0.01    -0.01   0.00   0.00     0.01  -0.02   0.03
   2   6     0.02  -0.05   0.08    -0.01   0.04  -0.03     0.04  -0.09   0.15
   3   6     0.05  -0.08   0.09     0.01   0.04  -0.09     0.03  -0.05   0.04
   4   6     0.03  -0.01   0.08    -0.01   0.11  -0.08    -0.03   0.10  -0.10
   5   6    -0.01   0.00   0.01    -0.07   0.08  -0.06    -0.10   0.12  -0.11
   6   6    -0.05  -0.04  -0.05    -0.08  -0.06  -0.06    -0.06  -0.02  -0.04
   7   6    -0.04  -0.06  -0.12    -0.03  -0.10  -0.07     0.02  -0.05   0.08
   8   6    -0.03  -0.05  -0.09     0.02  -0.02  -0.08     0.07   0.07   0.06
   9   6    -0.00  -0.01  -0.01     0.01  -0.01  -0.00     0.02   0.00   0.02
  10   1    -0.00   0.02  -0.03     0.01  -0.01   0.01    -0.01   0.04  -0.06
  11   1     0.07   0.00  -0.08    -0.04  -0.00   0.04     0.15   0.01  -0.14
  12   1    -0.10   0.05  -0.00     0.04  -0.03   0.00    -0.19   0.08   0.00
  13   1    -0.07   0.26   0.02     0.03  -0.16  -0.01    -0.13   0.32   0.04
  14   1     0.01  -0.10  -0.25     0.00   0.06   0.15     0.06  -0.12  -0.32
  15   1     0.04  -0.11  -0.28    -0.06   0.08   0.25    -0.08  -0.09  -0.13
  16   1    -0.10   0.28   0.02     0.14  -0.25  -0.02     0.07   0.16   0.01
  17   1    -0.09   0.18   0.02     0.14  -0.29  -0.02     0.02  -0.25  -0.03
  18   1     0.08  -0.04  -0.18    -0.02   0.13   0.32     0.06   0.13   0.23
  19   1     0.02   0.07   0.01     0.05  -0.22  -0.03     0.06  -0.29  -0.05
  20   1    -0.01  -0.02  -0.06     0.02   0.10   0.23    -0.01   0.12   0.29
  21   1     0.00  -0.09   0.18     0.00  -0.11   0.20    -0.02  -0.02   0.04
  22   1     0.04   0.19  -0.01     0.07   0.19  -0.01     0.07   0.01  -0.01
  23   1    -0.06  -0.12   0.30    -0.03  -0.13   0.27     0.09  -0.02  -0.08
  24   1     0.16   0.28  -0.01     0.15   0.24  -0.00    -0.08  -0.09   0.02
  25   1     0.17   0.22  -0.00     0.14   0.17  -0.01    -0.10  -0.17   0.00
  26   1    -0.09  -0.09   0.25    -0.06  -0.05   0.18     0.05   0.09  -0.19
  27   1     0.01   0.02   0.03     0.01  -0.01   0.03    -0.00  -0.05  -0.02
  28   1     0.05  -0.07   0.08     0.02  -0.04   0.06    -0.07   0.07  -0.07
  29   1    -0.02   0.12   0.01    -0.02   0.08   0.01     0.01  -0.11  -0.00
                     19                     20                     21
                        a                      a                      a 
 Frequencies --   822.3347               866.4014              1505.2425
 Red. masses --    99.0000                99.0000                99.0000
 Frc consts  --    99.0000                99.0000                99.0000
 IR Inten    --    99.0000                99.0000                99.0000
 Raman Activ --     0.0000                 0.0000                 0.0000
 Depolar     --     0.0000                 0.0000                 0.0000
 Atom AN      X      Y      Z        X      Y      Z        X      Y      Z
   1   6     0.02  -0.02   0.02     0.01  -0.06   0.08    -0.00  -0.00   0.00
   2   6     0.01  -0.06   0.07     0.02  -0.10   0.10     0.00  -0.01  -0.01
   3   6    -0.06   0.04  -0.01    -0.05   0.14  -0.16    -0.00   0.00   0.00
   4   6    -0.06  -0.03  -0.14     0.01   0.04  -0.03     0.01  -0.02  -0.01
   5   6     0.03   0.00   0.02     0.14  -0.17   0.15     0.00   0.00   0.00
   6   6     0.15   0.12   0.17    -0.00  -0.07   0.02     0.00  -0.00  -0.00
   7   6     0.04   0.05   0.07    -0.01   0.09  -0.16     0.01   0.01  -0.01
   8   6    -0.08  -0.11  -0.16    -0.04   0.00   0.09     0.01   0.02   0.04
   9   6    -0.03  -0.02  -0.06    -0.03   0.03   0.05     0.06   0.10   0.18
  10   1    -0.02   0.03  -0.03    -0.04   0.07  -0.08     0.00   0.00  -0.00
  11   1     0.11   0.01  -0.08     0.23   0.02  -0.17     0.00  -0.00  -0.00
  12   1    -0.10   0.05   0.00    -0.26   0.10   0.01     0.00   0.00   0.00
  13   1    -0.08   0.12   0.02    -0.21   0.09   0.02    -0.01   0.03  -0.00
  14   1     0.06  -0.04  -0.13     0.18  -0.01  -0.15    -0.00   0.01   0.03
  15   1    -0.09   0.00   0.06    -0.13   0.08   0.23     0.00  -0.00  -0.01
  16   1     0.08  -0.02   0.00     0.16  -0.20  -0.04     0.01  -0.01  -0.00
  17   1     0.04  -0.16  -0.04     0.20   0.02  -0.00    -0.02   0.05   0.00
  18   1    -0.09   0.01   0.12    -0.20  -0.05   0.05    -0.01   0.01   0.05
  19   1    -0.09  -0.04   0.00    -0.09   0.24   0.06     0.00  -0.01  -0.00
  20   1     0.02   0.00   0.01     0.09  -0.10  -0.27    -0.00  -0.00  -0.01
  21   1     0.05   0.15  -0.31    -0.00  -0.03   0.04     0.00  -0.00   0.00
  22   1    -0.11  -0.30   0.04    -0.09   0.08   0.01    -0.00   0.01  -0.00
  23   1    -0.13   0.14  -0.11    -0.02  -0.01   0.07    -0.03  -0.01   0.05
  24   1     0.08  -0.18   0.01     0.01   0.16  -0.04    -0.01  -0.05  -0.00
  25   1     0.08   0.31  -0.02     0.03  -0.12   0.02     0.02  -0.01   0.01
  26   1    -0.01  -0.17   0.28    -0.04   0.05  -0.06    -0.00   0.02  -0.02
  27   1     0.02   0.06   0.09    -0.04   0.05  -0.08    -0.20  -0.34  -0.59
  28   1     0.14  -0.16   0.17    -0.03   0.06  -0.08     0.42  -0.14  -0.16
  29   1    -0.08   0.26   0.00     0.08  -0.14   0.00    -0.45   0.08   0.02
                     22                     23                     24
                        a                      a                      a 
 Frequencies --  1504.9190              1507.9547               928.6069
 Red. masses --    99.0000                99.0000                99.0000
 Frc consts  --    99.0000                99.0000                99.0000
 IR Inten    --    99.0000                99.0000                99.0000
 Raman Activ --     0.0000                 0.0000                 0.0000
 Depolar     --     0.0000                 0.0000                 0.0000
 Atom AN      X      Y      Z        X      Y      Z        X      Y      Z
   1   6    -0.04   0.12  -0.17     0.05   0.17   0.10    -0.01   0.02  -0.08
   2   6    -0.01   0.03  -0.04     0.01   0.09   0.06    -0.01  -0.01  -0.00
   3   6     0.00  -0.00   0.00    -0.04   0.03   0.03    -0.03  -0.02   0.14
   4   6     0.00  -0.00   0.00     0.01   0.01   0.00    -0.05  -0.09  -0.19
   5   6     0.00  -0.00  -0.00    -0.00   0.01   0.01     0.02   0.08   0.08
   6   6    -0.00  -0.00   0.00    -0.00   0.00   0.00     0.18   0.08   0.16
   7   6    -0.00  -0.00   0.00     0.00  -0.01   0.00     0.04  -0.06  -0.22
   8   6     0.00   0.00   0.00    -0.02  -0.01   0.01    -0.06  -0.06   0.05
   9   6     0.00   0.00   0.00    -0.04  -0.02   0.02    -0.06   0.11   0.13
  10   1     0.15  -0.40   0.58    -0.24   0.13   0.15    -0.03  -0.02   0.08
  11   1     0.38   0.23   0.15    -0.05  -0.21  -0.56    -0.09   0.00   0.09
  12   1    -0.34  -0.32  -0.03     0.10  -0.59  -0.00     0.18  -0.03  -0.01
  13   1     0.02  -0.01  -0.01     0.03  -0.15   0.01     0.15   0.06   0.00
  14   1    -0.02   0.01   0.01    -0.01  -0.04  -0.15    -0.11  -0.05  -0.00
  15   1    -0.02  -0.01   0.00     0.03  -0.03  -0.13    -0.05  -0.06  -0.09
  16   1     0.02   0.01  -0.00     0.06  -0.12  -0.00     0.03   0.14   0.04
  17   1    -0.00  -0.00   0.00    -0.01   0.00   0.00    -0.05  -0.16  -0.05
  18   1     0.00  -0.00  -0.00    -0.01   0.00   0.01    -0.02   0.01   0.07
  19   1    -0.00   0.00   0.00     0.01  -0.03  -0.00    -0.17  -0.05   0.02
  20   1     0.00   0.00   0.00     0.00  -0.01  -0.03     0.05   0.04   0.01
  21   1     0.00   0.00  -0.00     0.00  -0.00   0.00     0.17   0.03  -0.19
  22   1     0.00   0.00   0.00     0.00  -0.00   0.00    -0.17  -0.12   0.04
  23   1     0.00   0.00  -0.00     0.00   0.01  -0.02    -0.15  -0.01   0.15
  24   1     0.00   0.00   0.00     0.01   0.02   0.00     0.24   0.12  -0.05
  25   1    -0.00  -0.00  -0.00     0.03   0.03   0.00     0.22  -0.16   0.01
  26   1    -0.00   0.00   0.00     0.01   0.01  -0.04    -0.21   0.09   0.01
  27   1    -0.00   0.00  -0.00     0.01  -0.06   0.03    -0.08   0.08  -0.15
  28   1     0.00  -0.00   0.00     0.05   0.03  -0.12    -0.10   0.16  -0.17
  29   1    -0.01  -0.00  -0.00     0.09   0.10   0.01     0.14  -0.28   0.01
                     25                     26                     27
                        a                      a                      a 
 Frequencies --  1508.1473               970.2981              1028.4774
 Red. masses --    99.0000                99.0000                99.0000
 Frc consts  --    99.0000                99.0000                99.0000
 IR Inten    --    99.0000                99.0000                99.0000
 Raman Activ --     0.0000                 0.0000                 0.0000
 Depolar     --     0.0000                 0.0000                 0.0000
 Atom AN      X      Y      Z        X      Y      Z        X      Y      Z
   1   6    -0.01  -0.04  -0.02     0.02   0.12  -0.08    -0.09   0.04  -0.03
   2   6    -0.01  -0.01  -0.01     0.02  -0.03   0.07     0.08  -0.07   0.04
   3   6     0.01  -0.01  -0.01     0.01  -0.10   0.02     0.09   0.04  -0.09
   4   6    -0.01   0.02   0.02    -0.02   0.19  -0.08     0.00   0.13   0.14
   5   6    -0.00  -0.00  -0.00     0.19  -0.20   0.03    -0.20  -0.08  -0.04
   6   6    -0.01   0.01  -0.00    -0.09  -0.08   0.05    -0.04   0.14  -0.16
   7   6    -0.00  -0.04   0.03    -0.23   0.12   0.03     0.16  -0.19   0.13
   8   6    -0.08  -0.05   0.06     0.05   0.11  -0.06     0.02  -0.13  -0.03
   9   6    -0.16  -0.07   0.09     0.21  -0.10  -0.03    -0.09   0.12   0.03
  10   1     0.05  -0.03  -0.03     0.13  -0.08   0.02    -0.02  -0.02   0.04
  11   1     0.01   0.05   0.13    -0.24  -0.03   0.12    -0.11  -0.00   0.07
  12   1    -0.03   0.13   0.00     0.15  -0.09  -0.02     0.08  -0.03  -0.00
  13   1     0.01   0.00  -0.00     0.15   0.13   0.02     0.10   0.11   0.01
  14   1     0.01   0.00   0.00    -0.24  -0.13  -0.06    -0.09  -0.09  -0.07
  15   1    -0.01   0.01   0.04    -0.24  -0.14  -0.07    -0.18  -0.05   0.04
  16   1    -0.02   0.04   0.00     0.16   0.12   0.01     0.23   0.02  -0.02
  17   1     0.03  -0.07  -0.00     0.16  -0.08  -0.02     0.24   0.17   0.05
  18   1     0.01  -0.02  -0.08    -0.15   0.04   0.14    -0.19  -0.05  -0.00
  19   1     0.00   0.01   0.00    -0.05   0.10   0.02     0.23   0.09  -0.01
  20   1     0.00   0.00   0.01     0.17  -0.05  -0.17    -0.29  -0.12   0.00
  21   1     0.00  -0.01   0.01    -0.07  -0.00   0.04    -0.19   0.13   0.01
  22   1    -0.00  -0.02   0.00    -0.07   0.03   0.01     0.25  -0.06  -0.05
  23   1     0.02   0.04  -0.12    -0.09   0.06  -0.01    -0.07   0.03  -0.02
  24   1     0.06   0.12   0.00    -0.15   0.06   0.01     0.19  -0.20   0.03
  25   1     0.10   0.11   0.02    -0.08   0.07  -0.02     0.14  -0.03  -0.00
  26   1     0.05   0.03  -0.14    -0.01   0.05  -0.03    -0.09  -0.01   0.07
  27   1     0.04  -0.28   0.13     0.10  -0.26   0.12    -0.05   0.07  -0.06
  28   1     0.21   0.12  -0.54    -0.07   0.02   0.04    -0.04   0.07  -0.06
  29   1     0.40   0.44   0.03    -0.11   0.06   0.00     0.04  -0.06  -0.00
                     28                     29                     30
                        a                      a                      a 
 Frequencies --  1213.8068              1178.4879               934.4329
 Red. masses --    99.0000                99.0000                99.0000
 Frc consts  --    99.0000                99.0000                99.0000
 IR Inten    --    99.0000                99.0000                99.0000
 Raman Activ --     0.0000                 0.0000                 0.0000
 Depolar     --     0.0000                 0.0000                 0.0000
 Atom AN      X      Y      Z        X      Y      Z        X      Y      Z
   1   6    -0.05   0.14  -0.21    -0.01  -0.01  -0.10    -0.11  -0.01  -0.04
   2   6     0.07  -0.20   0.29     0.02   0.02   0.17     0.01  -0.08  -0.05
   3   6    -0.06   0.15  -0.22     0.01   0.01  -0.21     0.10   0.04   0.09
   4   6     0.04  -0.09   0.14     0.05   0.00   0.27     0.07   0.19   0.00
   5   6     0.00   0.01  -0.02     0.00   0.04  -0.33     0.07  -0.14  -0.08
   6   6     0.01  -0.01  -0.09    -0.01  -0.03   0.34    -0.14  -0.25   0.08
   7   6     0.03   0.03   0.16     0.00   0.07  -0.29     0.21   0.27  -0.12
   8   6    -0.03  -0.09  -0.20    -0.06  -0.01   0.23    -0.15  -0.09   0.10
   9   6     0.03   0.06   0.14     0.04  -0.00  -0.13    -0.25   0.00   0.01
  10   1     0.02  -0.06   0.09    -0.05  -0.00   0.05    -0.11   0.01   0.09
  11   1    -0.20   0.01   0.14    -0.02   0.02   0.05    -0.05   0.01   0.07
  12   1     0.23  -0.08  -0.04     0.12  -0.00  -0.02     0.12  -0.01  -0.00
  13   1    -0.15   0.16   0.07     0.00   0.11   0.04     0.11   0.02  -0.01
  14   1     0.12  -0.09  -0.17    -0.01  -0.03  -0.05    -0.06  -0.05  -0.02
  15   1     0.04   0.12   0.14    -0.12  -0.00   0.07    -0.02  -0.03  -0.05
  16   1    -0.03  -0.18  -0.05     0.08  -0.10  -0.05     0.04   0.10   0.02
  17   1    -0.18   0.03   0.03    -0.02   0.16   0.07     0.03  -0.06  -0.00
  18   1     0.17   0.00  -0.08    -0.08  -0.08  -0.10     0.06   0.10   0.10
  19   1    -0.17  -0.09  -0.01     0.11  -0.17  -0.09    -0.04  -0.04  -0.02
  20   1     0.13   0.06   0.01    -0.20  -0.03   0.11     0.17   0.02  -0.05
  21   1     0.03  -0.04   0.03     0.18  -0.05  -0.10    -0.15  -0.03   0.12
  22   1    -0.11   0.13  -0.02    -0.11  -0.16   0.08    -0.00   0.03   0.02
  23   1     0.07   0.02  -0.07     0.07  -0.08   0.08     0.16   0.05  -0.12
  24   1    -0.12  -0.04   0.03     0.05   0.17  -0.06    -0.01  -0.01  -0.04
  25   1     0.02   0.14  -0.04    -0.13  -0.09   0.05    -0.03  -0.03   0.03
  26   1    -0.00  -0.09   0.10     0.04   0.02  -0.07     0.16  -0.13   0.02
  27   1    -0.03  -0.01  -0.06     0.04  -0.07   0.07    -0.11   0.40  -0.12
  28   1    -0.05   0.10  -0.08    -0.01  -0.03   0.06     0.22  -0.17   0.04
  29   1     0.06  -0.15   0.02    -0.10   0.13  -0.02     0.13   0.03   0.00
                     31                     32                     33
                        a                      a                      a 
 Frequencies --  1497.7421              1491.3423              1496.1464
 Red. masses --    99.0000                99.0000                99.0000
 Frc consts  --    99.0000                99.0000                99.0000
 IR Inten    --    99.0000                99.0000                99.0000
 Raman Activ --     0.0000                 0.0000                 0.0000
 Depolar     --     0.0000                 0.0000                 0.0000
 Atom AN      X      Y      Z        X      Y      Z        X      Y      Z
   1   6     0.01  -0.04  -0.03     0.00   0.00   0.00     0.00  -0.01  -0.01
   2   6    -0.07   0.15   0.12     0.01   0.01   0.01    -0.02   0.01   0.01
   3   6    -0.04   0.03   0.03     0.02  -0.05  -0.05    -0.04   0.08   0.06
   4   6     0.02  -0.05  -0.04    -0.02   0.01   0.01     0.04  -0.00  -0.02
   5   6    -0.00   0.03   0.02    -0.05   0.13   0.13     0.04  -0.13  -0.10
   6   6     0.03   0.03  -0.03    -0.06  -0.13   0.11    -0.05  -0.13   0.10
   7   6     0.07   0.10  -0.08    -0.02  -0.00   0.00    -0.03   0.02  -0.00
   8   6    -0.01   0.03  -0.01     0.03   0.05  -0.04     0.05   0.08  -0.06
   9   6    -0.02  -0.01   0.01    -0.00  -0.01   0.01    -0.01  -0.02   0.01
  10   1     0.04  -0.02  -0.02    -0.01   0.00   0.00     0.02  -0.01  -0.01
  11   1    -0.01   0.05   0.15    -0.00  -0.00  -0.01     0.00   0.02   0.04
  12   1    -0.06   0.15   0.00    -0.00  -0.01   0.00    -0.01   0.04   0.00
  13   1     0.19  -0.46   0.00     0.00  -0.03  -0.00     0.02  -0.02   0.00
  14   1     0.07  -0.13  -0.48    -0.00  -0.01  -0.03     0.01  -0.00  -0.03
  15   1     0.03  -0.02  -0.09    -0.01   0.05   0.16     0.04  -0.07  -0.25
  16   1     0.05  -0.08   0.00    -0.06   0.16  -0.00     0.10  -0.24   0.00
  17   1    -0.05   0.15   0.00     0.01  -0.01   0.00    -0.06   0.05   0.00
  18   1    -0.02   0.04   0.15     0.02   0.01  -0.01    -0.03   0.01   0.06
  19   1     0.03  -0.09  -0.01     0.18  -0.42  -0.03    -0.15   0.36   0.02
  20   1    -0.00  -0.02  -0.09     0.02  -0.11  -0.45    -0.03   0.07   0.37
  21   1    -0.02  -0.02   0.11     0.04   0.13  -0.42     0.04   0.10  -0.38
  22   1    -0.06  -0.09  -0.00     0.22   0.37   0.01     0.20   0.35   0.00
  23   1    -0.06  -0.09   0.32     0.01  -0.01   0.01     0.02  -0.01   0.01
  24   1    -0.17  -0.29  -0.02    -0.00  -0.00   0.00     0.03  -0.02  -0.00
  25   1    -0.01  -0.05  -0.00    -0.08  -0.15  -0.01    -0.13  -0.23  -0.02
  26   1     0.00  -0.02   0.05    -0.02  -0.06   0.16    -0.04  -0.08   0.25
  27   1     0.01  -0.03   0.03     0.00  -0.01   0.00     0.01  -0.02   0.01
  28   1     0.01   0.02  -0.06     0.01   0.02  -0.05     0.02   0.03  -0.08
  29   1     0.06   0.05   0.00     0.02   0.04   0.00     0.05   0.07   0.00
                     34                     35                     36
                        a                      a                      a 
 Frequencies --   998.6480              1499.8350              1491.6922
 Red. masses --    99.0000                99.0000                99.0000
 Frc consts  --    99.0000                99.0000                99.0000
 IR Inten    --    99.0000                99.0000                99.0000
 Raman Activ --     0.0000                 0.0000                 0.0000
 Depolar     --     0.0000                 0.0000                 0.0000
 Atom AN      X      Y      Z        X      Y      Z        X      Y      Z
   1   6    -0.03   0.02   0.09    -0.00  -0.03  -0.02    -0.01   0.01   0.01
   2   6     0.03  -0.01  -0.09    -0.04   0.01   0.02     0.02  -0.05  -0.04
   3   6     0.12  -0.03  -0.03    -0.06   0.16   0.13     0.02   0.02   0.00
   4   6     0.07   0.22   0.20    -0.02   0.09   0.07    -0.06   0.14   0.12
   5   6     0.11  -0.18  -0.29    -0.04   0.05   0.06    -0.02  -0.01  -0.00
   6   6    -0.18  -0.09   0.21    -0.02  -0.02   0.02     0.02  -0.01  -0.00
   7   6    -0.13   0.14  -0.03    -0.02  -0.06   0.04     0.08   0.14  -0.11
   8   6    -0.04   0.04  -0.13    -0.03  -0.08   0.06    -0.01   0.03  -0.01
   9   6     0.12  -0.05   0.11     0.02   0.02  -0.01    -0.01  -0.01   0.01
  10   1     0.05  -0.00  -0.06     0.05  -0.03  -0.03    -0.01   0.01   0.01
  11   1     0.01  -0.01  -0.05     0.01   0.04   0.11     0.01  -0.01  -0.05
  12   1    -0.16   0.01   0.02    -0.02   0.11   0.00     0.02  -0.05  -0.00
  13   1    -0.12  -0.12  -0.03     0.04  -0.06   0.00    -0.06   0.14  -0.00
  14   1     0.05   0.03   0.03     0.02  -0.01  -0.06    -0.02   0.04   0.15
  15   1     0.12   0.03  -0.02     0.06  -0.13  -0.46    -0.02  -0.01   0.00
  16   1    -0.16  -0.06  -0.01     0.18  -0.45   0.01    -0.02  -0.01   0.00
  17   1    -0.12   0.05   0.05     0.07  -0.22  -0.00     0.17  -0.43  -0.00
  18   1     0.11   0.08   0.01     0.03  -0.05  -0.22     0.08  -0.11  -0.45
  19   1     0.07  -0.13  -0.08     0.08  -0.18  -0.01    -0.01   0.04   0.01
  20   1     0.12   0.01   0.02     0.02  -0.04  -0.19     0.00   0.01   0.04
  21   1    -0.24   0.11  -0.01     0.01   0.02  -0.08    -0.00   0.01  -0.02
  22   1     0.06  -0.19   0.05     0.05   0.07   0.00     0.00   0.02  -0.00
  23   1    -0.22   0.15  -0.02     0.02   0.04  -0.14    -0.09  -0.12   0.43
  24   1     0.18  -0.09  -0.01     0.06   0.14   0.01    -0.22  -0.40  -0.03
  25   1     0.21   0.00  -0.03     0.12   0.23   0.02    -0.00  -0.03  -0.00
  26   1    -0.19   0.08   0.06     0.04   0.08  -0.24     0.02  -0.02   0.02
  27   1     0.01  -0.10  -0.03    -0.01   0.03  -0.04     0.01  -0.03   0.02
  28   1    -0.08   0.09  -0.08    -0.02  -0.03   0.10     0.02   0.01  -0.04
  29   1     0.06  -0.17   0.02    -0.08  -0.09  -0.01     0.04   0.03   0.00
                     37                     38                     39
                        a                      a                      a 
 Frequencies --   941.2351              1227.6596              1500.8014
 Red. masses --    99.0000                99.0000                99.0000
 Frc consts  --    99.0000                99.0000                99.0000
 IR Inten    --    99.0000                99.0000                99.0000
 Raman Activ --     0.0000                 0.0000                 0.0000
 Depolar     --     0.0000                 0.0000                 0.0000
 Atom AN      X      Y      Z        X      Y      Z        X      Y      Z
   1   6     0.29   0.20   0.06    -0.03   0.12  -0.09     0.01   0.00   0.00
   2   6    -0.01   0.23   0.16     0.04  -0.16   0.11    -0.01   0.06   0.04
   3   6    -0.10  -0.33  -0.20    -0.09   0.08  -0.03     0.02  -0.08  -0.06
   4   6    -0.16   0.02   0.05    -0.03  -0.07  -0.05     0.01  -0.00  -0.00
   5   6    -0.03   0.03   0.03    -0.04  -0.01   0.11     0.02  -0.06  -0.05
   6   6     0.09  -0.04  -0.01     0.04   0.05  -0.04    -0.04  -0.09   0.07
   7   6     0.13   0.04  -0.06    -0.07  -0.15  -0.09     0.00   0.01  -0.01
   8   6    -0.06  -0.06   0.05     0.14   0.17   0.23    -0.07  -0.14   0.11
   9   6    -0.12   0.05   0.01    -0.10  -0.14  -0.21     0.01   0.03  -0.02
  10   1     0.48  -0.15  -0.23     0.05  -0.05   0.03    -0.02   0.01   0.01
  11   1    -0.19  -0.09  -0.04    -0.14   0.00   0.07    -0.01  -0.01  -0.01
  12   1    -0.19  -0.11  -0.00     0.10  -0.06  -0.02    -0.01  -0.01   0.00
  13   1    -0.13   0.01   0.04    -0.09   0.06   0.03     0.06  -0.17   0.00
  14   1    -0.12   0.01   0.04     0.14  -0.03  -0.09     0.01  -0.05  -0.17
  15   1    -0.07  -0.11  -0.05     0.17   0.11   0.05    -0.03   0.07   0.24
  16   1    -0.08  -0.11  -0.06    -0.03  -0.05  -0.01    -0.08   0.23  -0.00
  17   1    -0.02   0.00   0.01    -0.00  -0.01  -0.01    -0.01  -0.01  -0.00
  18   1    -0.01   0.02   0.01     0.17   0.05   0.00     0.00  -0.00  -0.00
  19   1     0.01   0.01   0.01    -0.00   0.06   0.03    -0.08   0.18   0.01
  20   1     0.03   0.02   0.01     0.20   0.08  -0.02    -0.02   0.04   0.19
  21   1     0.02  -0.01   0.00    -0.25   0.17  -0.01     0.03   0.08  -0.28
  22   1     0.03  -0.00  -0.00     0.16  -0.09  -0.02     0.14   0.26   0.00
  23   1     0.04   0.01  -0.02    -0.19   0.01   0.09    -0.02  -0.02   0.07
  24   1     0.04  -0.00  -0.02     0.13   0.02  -0.02    -0.03  -0.07  -0.00
  25   1     0.02  -0.04   0.01     0.08  -0.23   0.04     0.23   0.41   0.03
  26   1     0.02  -0.04   0.01    -0.10   0.21  -0.14     0.08   0.15  -0.44
  27   1    -0.06   0.17  -0.07     0.02   0.08   0.08    -0.01   0.02  -0.02
  28   1     0.06  -0.03  -0.01     0.13  -0.19   0.13    -0.02  -0.04   0.11
  29   1     0.06  -0.02  -0.00    -0.05   0.22  -0.03    -0.06  -0.10  -0.01
                     40                     41                     42
                        a                      a                      a 
 Frequencies --  1503.0912              1072.4976              1088.1791
 Red. masses --    99.0000                99.0000                99.0000
 Frc consts  --    99.0000                99.0000                99.0000
 IR Inten    --    99.0000                99.0000                99.0000
 Raman Activ --     0.0000                 0.0000                 0.0000
 Depolar     --     0.0000                 0.0000                 0.0000
 Atom AN      X      Y      Z        X      Y      Z        X      Y      Z
   1   6     0.01  -0.00  -0.00     0.28  -0.10  -0.16     0.23  -0.05  -0.08
   2   6    -0.04   0.11   0.08    -0.32   0.08   0.18    -0.28   0.02   0.06
   3   6     0.02  -0.04  -0.04    -0.29   0.03   0.04    -0.22   0.07   0.14
   4   6    -0.05   0.11   0.09     0.19  -0.18  -0.11     0.35   0.11  -0.06
   5   6    -0.00  -0.03  -0.02     0.14   0.15  -0.03     0.05  -0.15  -0.09
   6   6     0.00   0.02  -0.01    -0.16  -0.08   0.06    -0.15   0.12  -0.01
   7   6    -0.05  -0.08   0.06    -0.10   0.08   0.04     0.11  -0.12   0.03
   8   6     0.05   0.06  -0.04    -0.06   0.24  -0.16     0.12  -0.35   0.15
   9   6     0.03   0.02   0.01     0.02  -0.22   0.14    -0.05   0.30  -0.15
  10   1    -0.01   0.01   0.00    -0.01   0.01   0.02     0.06  -0.00  -0.03
  11   1    -0.02  -0.00   0.02     0.14   0.01  -0.02     0.09  -0.00  -0.04
  12   1    -0.02   0.02   0.00     0.18   0.01  -0.04     0.06  -0.00  -0.02
  13   1     0.12  -0.32   0.00    -0.04   0.07   0.05    -0.11  -0.02   0.02
  14   1     0.04  -0.09  -0.33    -0.08   0.02   0.03    -0.08   0.01   0.04
  15   1    -0.03   0.05   0.18    -0.09   0.02   0.05    -0.05   0.02   0.02
  16   1    -0.07   0.18   0.00     0.04   0.02   0.02    -0.13   0.03   0.04
  17   1     0.15  -0.36  -0.01     0.16   0.05  -0.02     0.09  -0.01  -0.01
  18   1     0.06  -0.10  -0.37     0.03  -0.07  -0.08     0.17   0.07   0.02
  19   1    -0.03   0.11   0.01     0.25   0.05  -0.01    -0.10  -0.05  -0.02
  20   1     0.01   0.03   0.10    -0.05   0.02   0.05     0.02  -0.04  -0.06
  21   1     0.01  -0.03   0.06    -0.04  -0.04   0.05    -0.14   0.09  -0.01
  22   1    -0.02  -0.06  -0.00     0.12  -0.07   0.01    -0.14   0.07  -0.00
  23   1     0.05   0.09  -0.27     0.03   0.01  -0.02    -0.02  -0.01   0.02
  24   1     0.15   0.25   0.01     0.10  -0.09   0.01    -0.03  -0.00   0.01
  25   1    -0.12  -0.17  -0.01     0.08   0.05  -0.04     0.01  -0.08   0.04
  26   1    -0.05  -0.05   0.19    -0.00   0.05  -0.01    -0.00  -0.08   0.05
  27   1    -0.03   0.00  -0.10    -0.02   0.08  -0.05     0.01  -0.07   0.03
  28   1     0.02  -0.02   0.04     0.10  -0.09  -0.00    -0.13   0.14  -0.03
  29   1    -0.11  -0.03  -0.00     0.13  -0.14   0.03    -0.13   0.13  -0.03
                     43                     44                     45
                        a                      a                      a 
 Frequencies --  1097.6101              1112.0503              1116.0740
 Red. masses --    99.0000                99.0000                99.0000
 Frc consts  --    99.0000                99.0000                99.0000
 IR Inten    --    99.0000                99.0000                99.0000
 Raman Activ --     0.0000                 0.0000                 0.0000
 Depolar     --     0.0000                 0.0000                 0.0000
 Atom AN      X      Y      Z        X      Y      Z        X      Y      Z
   1   6    -0.15   0.18   0.16     0.12  -0.07  -0.07     0.18   0.04  -0.03
   2   6     0.26  -0.12  -0.14    -0.19   0.02   0.05    -0.27  -0.27  -0.11
   3   6    -0.24   0.13   0.13     0.10  -0.01  -0.00     0.36   0.26   0.07
   4   6     0.35   0.01  -0.07    -0.01   0.17   0.07    -0.16   0.03   0.07
   5   6     0.07  -0.07  -0.11    -0.18  -0.16   0.03     0.15   0.02  -0.07
   6   6    -0.10   0.20   0.03     0.15   0.09  -0.13    -0.13   0.17   0.06
   7   6     0.04  -0.19   0.02     0.37  -0.07  -0.09    -0.05  -0.17   0.05
   8   6    -0.07   0.21  -0.04    -0.41   0.17   0.05     0.10   0.08  -0.02
   9   6    -0.02  -0.17   0.07     0.15  -0.23   0.07    -0.08  -0.03   0.02
  10   1     0.13  -0.05  -0.07    -0.02   0.01   0.01     0.15  -0.05  -0.07
  11   1    -0.20  -0.03   0.02     0.09   0.01  -0.02    -0.03  -0.04  -0.03
  12   1    -0.19  -0.04   0.03     0.07   0.01  -0.02    -0.02  -0.05  -0.01
  13   1     0.05  -0.03  -0.04    -0.08  -0.02   0.01    -0.25  -0.14  -0.03
  14   1     0.05  -0.04  -0.04    -0.06   0.00   0.02    -0.26  -0.15  -0.04
  15   1    -0.24  -0.04   0.04     0.08   0.02  -0.01     0.12   0.08   0.03
  16   1    -0.21  -0.04   0.03     0.03   0.03   0.00     0.15   0.08   0.02
  17   1     0.06  -0.01  -0.02     0.01   0.01   0.02    -0.19  -0.04   0.01
  18   1     0.05  -0.01  -0.03     0.08   0.09   0.06    -0.20  -0.06   0.00
  19   1    -0.06  -0.07  -0.03    -0.18  -0.02   0.01     0.05   0.01  -0.02
  20   1    -0.15  -0.09  -0.03    -0.01  -0.04  -0.05    -0.03  -0.02  -0.00
  21   1     0.07   0.02  -0.07    -0.06   0.09  -0.04     0.06   0.01  -0.04
  22   1    -0.17   0.04   0.01    -0.03   0.07  -0.03    -0.17   0.05   0.02
  23   1     0.15  -0.15   0.06     0.12  -0.03  -0.02     0.05  -0.10   0.06
  24   1     0.07  -0.02   0.01     0.11  -0.01  -0.02     0.02  -0.02   0.02
  25   1    -0.07   0.04  -0.01    -0.28   0.14   0.01     0.01  -0.02  -0.01
  26   1     0.01   0.05  -0.04    -0.27   0.14   0.01     0.10  -0.01  -0.04
  27   1    -0.02   0.07  -0.02     0.05  -0.13   0.06    -0.03   0.10  -0.03
  28   1     0.10  -0.10   0.03     0.00  -0.05   0.04     0.07  -0.06   0.01
  29   1     0.08  -0.05   0.02    -0.01  -0.05   0.02     0.05  -0.00   0.00
                     46                     47                     48
                        a                      a                      a 
 Frequencies --  1146.2689              1260.9823              1130.7517
 Red. masses --    99.0000                99.0000                99.0000
 Frc consts  --    99.0000                99.0000                99.0000
 IR Inten    --    99.0000                99.0000                99.0000
 Raman Activ --     0.0000                 0.0000                 0.0000
 Depolar     --     0.0000                 0.0000                 0.0000
 Atom AN      X      Y      Z        X      Y      Z        X      Y      Z
   1   6    -0.01  -0.14  -0.08    -0.03   0.12  -0.08    -0.09  -0.03   0.00
   2   6    -0.02   0.25   0.15    -0.03  -0.10   0.01     0.13   0.12   0.05
   3   6     0.04  -0.27  -0.15    -0.05  -0.08   0.11    -0.02  -0.16  -0.11
   4   6    -0.06   0.25   0.13    -0.16   0.12  -0.14    -0.22  -0.15  -0.08
   5   6     0.03  -0.25  -0.08    -0.01  -0.17   0.05     0.39   0.15  -0.03
   6   6     0.03   0.25  -0.02    -0.03   0.11   0.11    -0.36   0.19   0.04
   7   6    -0.21  -0.25   0.12    -0.12   0.05  -0.10     0.24  -0.15   0.04
   8   6     0.22   0.17  -0.11    -0.11  -0.05  -0.01    -0.12  -0.08   0.07
   9   6    -0.13  -0.07   0.05     0.07   0.08   0.04     0.03   0.02  -0.02
  10   1    -0.16   0.05   0.07     0.06  -0.04   0.02    -0.08   0.02   0.04
  11   1     0.14   0.04   0.00    -0.13   0.00   0.06     0.02   0.02   0.02
  12   1     0.11   0.06  -0.01     0.09  -0.06  -0.02     0.02   0.03   0.00
  13   1     0.07   0.07   0.04    -0.20  -0.06  -0.00     0.10   0.05   0.01
  14   1     0.08   0.10   0.05     0.33   0.10  -0.02     0.11   0.06   0.01
  15   1     0.03  -0.06  -0.06     0.21   0.04  -0.05     0.03  -0.03  -0.04
  16   1    -0.03  -0.05  -0.04     0.07   0.10   0.03     0.04  -0.03  -0.03
  17   1    -0.01   0.01   0.03     0.10  -0.07  -0.03    -0.11  -0.09  -0.03
  18   1     0.04   0.10   0.07     0.21   0.17   0.11    -0.06  -0.04  -0.02
  19   1    -0.15  -0.04  -0.02     0.29   0.19   0.02     0.26   0.12  -0.01
  20   1     0.00  -0.08  -0.09    -0.16  -0.13  -0.07     0.19   0.08  -0.01
  21   1     0.05   0.06  -0.09     0.13  -0.03  -0.05    -0.18   0.10   0.02
  22   1    -0.15   0.03  -0.00     0.12  -0.16   0.02    -0.23   0.15   0.02
  23   1     0.00  -0.11   0.08     0.24  -0.16   0.04     0.09  -0.06   0.01
  24   1    -0.05   0.01   0.03     0.08   0.01  -0.02     0.14  -0.11   0.01
  25   1     0.09  -0.03  -0.03    -0.04   0.04   0.00    -0.10   0.02   0.02
  26   1     0.16  -0.00  -0.06     0.19  -0.15   0.02    -0.10   0.02   0.03
  27   1    -0.06   0.16  -0.06     0.01  -0.08  -0.00     0.01  -0.05   0.02
  28   1     0.12  -0.09   0.00    -0.06   0.08  -0.03    -0.04   0.03   0.00
  29   1     0.10  -0.03   0.01    -0.01  -0.06   0.01    -0.04   0.01  -0.00
                     49                     50                     51
                        a                      a                      a 
 Frequencies --  1257.1416              1282.5040              1286.2927
 Red. masses --    99.0000                99.0000                99.0000
 Frc consts  --    99.0000                99.0000                99.0000
 IR Inten    --    99.0000                99.0000                99.0000
 Raman Activ --     0.0000                 0.0000                 0.0000
 Depolar     --     0.0000                 0.0000                 0.0000
 Atom AN      X      Y      Z        X      Y      Z        X      Y      Z
   1   6     0.03   0.03   0.15    -0.02   0.04  -0.06     0.01  -0.08   0.02
   2   6    -0.09  -0.11  -0.14    -0.03   0.06  -0.10     0.06   0.09   0.00
   3   6    -0.19   0.04  -0.02     0.01  -0.05   0.07     0.07   0.12  -0.11
   4   6    -0.14  -0.13   0.14     0.02  -0.05   0.07     0.06  -0.07  -0.02
   5   6    -0.09  -0.04  -0.14     0.00   0.03  -0.03     0.00   0.01   0.16
   6   6     0.08   0.08   0.10     0.08  -0.08   0.08     0.05   0.08   0.07
   7   6    -0.01  -0.09  -0.03     0.11  -0.02   0.06    -0.09  -0.10  -0.16
   8   6     0.04  -0.02  -0.08     0.11  -0.03  -0.08    -0.01  -0.02  -0.04
   9   6    -0.01   0.02   0.07    -0.07  -0.06  -0.01     0.02   0.04   0.07
  10   1     0.10  -0.01  -0.08     0.00  -0.00  -0.00    -0.06   0.03   0.00
  11   1     0.02  -0.03  -0.07    -0.05   0.01   0.03     0.06   0.00  -0.02
  12   1    -0.14  -0.00   0.03     0.05  -0.01  -0.01    -0.03   0.04   0.01
  13   1     0.33   0.08  -0.03    -0.29  -0.18  -0.03     0.02   0.00  -0.00
  14   1    -0.04  -0.02   0.02     0.30   0.17   0.05    -0.24  -0.08   0.01
  15   1     0.18   0.12   0.05    -0.33  -0.17  -0.04    -0.29  -0.06   0.05
  16   1     0.36   0.11   0.00     0.34   0.18   0.03    -0.01  -0.08  -0.03
  17   1     0.30   0.21   0.05    -0.13  -0.01   0.02    -0.36  -0.12  -0.01
  18   1     0.24   0.04  -0.06     0.12   0.01  -0.03     0.18   0.04  -0.01
  19   1     0.03  -0.06  -0.04     0.08   0.01  -0.01     0.03   0.10   0.05
  20   1     0.27   0.14   0.06    -0.10  -0.03   0.03     0.04   0.00  -0.02
  21   1    -0.08   0.12  -0.07    -0.09   0.06  -0.00    -0.32   0.23  -0.03
  22   1    -0.09  -0.02   0.02    -0.13   0.04   0.02     0.30  -0.25   0.01
  23   1     0.05  -0.07   0.04    -0.02   0.04  -0.03     0.18  -0.18   0.08
  24   1    -0.16   0.12  -0.00    -0.35   0.15   0.02    -0.12   0.18  -0.03
  25   1    -0.08   0.09  -0.02     0.08  -0.01  -0.02    -0.11   0.09  -0.01
  26   1     0.03  -0.03   0.02    -0.30   0.16   0.02     0.14  -0.10   0.01
  27   1    -0.02   0.02  -0.04    -0.02   0.07  -0.02    -0.01  -0.02  -0.03
  28   1    -0.01   0.03  -0.04     0.04  -0.05   0.00    -0.02   0.05  -0.04
  29   1     0.04  -0.06   0.01     0.02   0.04  -0.00     0.02  -0.07   0.01
                     52                     53                     54
                        a                      a                      a 
 Frequencies --  1277.0953              1289.5112              1298.7606
 Red. masses --    99.0000                99.0000                99.0000
 Frc consts  --    99.0000                99.0000                99.0000
 IR Inten    --    99.0000                99.0000                99.0000
 Raman Activ --     0.0000                 0.0000                 0.0000
 Depolar     --     0.0000                 0.0000                 0.0000
 Atom AN      X      Y      Z        X      Y      Z        X      Y      Z
   1   6     0.02  -0.03   0.07    -0.00  -0.01  -0.01     0.02  -0.01   0.07
   2   6    -0.03   0.01  -0.05     0.03  -0.03   0.08    -0.04  -0.06   0.03
   3   6    -0.04   0.07  -0.11     0.04  -0.02   0.03    -0.08   0.06  -0.13
   4   6    -0.04  -0.03   0.08    -0.06   0.08  -0.12    -0.00   0.10  -0.08
   5   6     0.04  -0.09   0.05     0.04   0.03  -0.02     0.01  -0.07   0.04
   6   6    -0.06   0.08  -0.08    -0.00   0.03   0.13     0.04  -0.13   0.05
   7   6    -0.10   0.17   0.15     0.10   0.02   0.05     0.09   0.00   0.01
   8   6    -0.15  -0.01   0.03    -0.01  -0.07  -0.12     0.14  -0.01   0.00
   9   6     0.03  -0.01  -0.15    -0.03  -0.04  -0.03    -0.05  -0.04   0.02
  10   1     0.01   0.01  -0.03    -0.01  -0.01   0.02     0.03  -0.00  -0.03
  11   1     0.05  -0.01  -0.04     0.01   0.00   0.01     0.04  -0.01  -0.04
  12   1    -0.07   0.02   0.01     0.00  -0.00   0.00    -0.05   0.01   0.01
  13   1     0.16   0.04  -0.01     0.06   0.07   0.02     0.27   0.14   0.01
  14   1    -0.11  -0.03   0.02    -0.11  -0.08  -0.04    -0.15  -0.08  -0.03
  15   1    -0.12   0.00   0.05     0.27   0.09  -0.01     0.14   0.11   0.07
  16   1     0.21   0.01  -0.02    -0.32  -0.11  -0.00     0.01  -0.07  -0.03
  17   1    -0.19  -0.03   0.02     0.19  -0.01  -0.02    -0.27  -0.15  -0.03
  18   1     0.27   0.09  -0.02    -0.20  -0.02   0.05     0.28   0.16   0.06
  19   1    -0.08   0.01   0.02     0.07   0.03  -0.00     0.30   0.17   0.02
  20   1     0.01  -0.04  -0.05    -0.10  -0.03   0.03    -0.36  -0.19  -0.04
  21   1     0.21  -0.13   0.02    -0.07   0.08  -0.04     0.08  -0.08   0.03
  22   1     0.03   0.02  -0.02     0.06  -0.11   0.03    -0.18   0.09   0.02
  23   1     0.35  -0.12  -0.07     0.30  -0.13  -0.02    -0.27   0.17  -0.02
  24   1     0.12  -0.17   0.03    -0.46   0.20   0.01    -0.07   0.04   0.00
  25   1     0.45  -0.25   0.00     0.25  -0.06  -0.03    -0.14   0.07   0.00
  26   1    -0.17   0.07   0.02    -0.34   0.13   0.06    -0.11   0.09  -0.02
  27   1     0.04  -0.08   0.07    -0.01   0.02  -0.02    -0.02   0.07  -0.02
  28   1     0.01  -0.05   0.07     0.02  -0.03   0.01     0.02  -0.02  -0.01
  29   1    -0.07   0.10  -0.03    -0.01   0.03  -0.01     0.02   0.02   0.01
                     55                     56                     57
                        a                      a                      a 
 Frequencies --  1324.2357              1349.1079              1367.1398
 Red. masses --    99.0000                99.0000                99.0000
 Frc consts  --    99.0000                99.0000                99.0000
 IR Inten    --    99.0000                99.0000                99.0000
 Raman Activ --     0.0000                 0.0000                 0.0000
 Depolar     --     0.0000                 0.0000                 0.0000
 Atom AN      X      Y      Z        X      Y      Z        X      Y      Z
   1   6     0.00   0.10   0.06     0.00   0.01   0.00     0.01   0.07   0.04
   2   6    -0.25  -0.13  -0.03    -0.03  -0.00  -0.00    -0.33  -0.11   0.01
   3   6    -0.10  -0.12  -0.05     0.01  -0.00  -0.01     0.24   0.05  -0.02
   4   6     0.15   0.12   0.06    -0.01  -0.00   0.03     0.15   0.02  -0.03
   5   6     0.23   0.14   0.06     0.06  -0.07   0.04    -0.32  -0.12  -0.00
   6   6    -0.04  -0.04  -0.04    -0.30   0.18  -0.02     0.05   0.06   0.03
   7   6     0.01  -0.02  -0.04    -0.01   0.09  -0.05     0.01  -0.01   0.02
   8   6    -0.05   0.01  -0.00     0.33  -0.19   0.00    -0.02   0.01  -0.01
   9   6     0.02   0.01   0.00    -0.08  -0.06   0.06     0.00   0.00  -0.00
  10   1     0.13  -0.04  -0.06     0.01  -0.00  -0.01     0.11  -0.03  -0.05
  11   1    -0.01  -0.01  -0.04     0.00  -0.00  -0.00     0.02  -0.00  -0.06
  12   1     0.01  -0.05   0.01     0.00  -0.00   0.00     0.04  -0.05   0.01
  13   1     0.31   0.12  -0.00     0.02   0.00  -0.00     0.31   0.10   0.01
  14   1     0.33   0.13   0.00     0.03   0.01   0.00     0.31   0.12  -0.01
  15   1     0.17   0.06   0.01    -0.03  -0.01   0.00    -0.22  -0.09   0.01
  16   1     0.18   0.08  -0.01     0.02   0.01  -0.00    -0.23  -0.07  -0.01
  17   1    -0.24  -0.11   0.00    -0.01   0.01   0.01    -0.15  -0.04  -0.01
  18   1    -0.26  -0.09  -0.02     0.01  -0.00  -0.00    -0.15  -0.06   0.01
  19   1    -0.33  -0.12   0.01    -0.13  -0.04   0.01     0.32   0.11  -0.00
  20   1    -0.25  -0.10  -0.00     0.13   0.02  -0.05     0.32   0.14  -0.01
  21   1    -0.18   0.07   0.05     0.32  -0.19  -0.01     0.11  -0.03  -0.04
  22   1     0.17  -0.08  -0.01     0.35  -0.18  -0.02    -0.07   0.02   0.01
  23   1     0.03  -0.03   0.01     0.05  -0.02   0.03     0.02  -0.01   0.00
  24   1    -0.03   0.04  -0.01     0.05  -0.06  -0.01    -0.03   0.00   0.01
  25   1     0.01  -0.01  -0.00    -0.35   0.21   0.01     0.04  -0.02  -0.00
  26   1     0.05  -0.04   0.00    -0.34   0.20  -0.01    -0.00  -0.00   0.00
  27   1     0.00  -0.02   0.00    -0.05   0.14  -0.06     0.00  -0.01   0.00
  28   1    -0.01   0.01   0.00    -0.01   0.02  -0.06     0.00  -0.00   0.00
  29   1    -0.01  -0.01  -0.00     0.02   0.06   0.01    -0.00  -0.00  -0.00
                     58                     59                     60
                        a                      a                      a 
 Frequencies --  1377.6675              1380.2769              1416.2166
 Red. masses --    99.0000                99.0000                99.0000
 Frc consts  --    99.0000                99.0000                99.0000
 IR Inten    --    99.0000                99.0000                99.0000
 Raman Activ --     0.0000                 0.0000                 0.0000
 Depolar     --     0.0000                 0.0000                 0.0000
 Atom AN      X      Y      Z        X      Y      Z        X      Y      Z
   1   6     0.02   0.02   0.01     0.03   0.02   0.01    -0.41   0.02   0.12
   2   6    -0.15  -0.05   0.01    -0.15  -0.05   0.01     0.07   0.03   0.00
   3   6     0.23   0.09   0.02     0.25   0.12   0.01    -0.01   0.02   0.01
   4   6    -0.22  -0.09  -0.02    -0.28  -0.12  -0.01    -0.02  -0.02  -0.01
   5   6     0.13   0.11  -0.01     0.23   0.03  -0.00     0.01   0.01  -0.00
   6   6     0.23  -0.16  -0.02    -0.22   0.06   0.01     0.00  -0.00  -0.00
   7   6    -0.28   0.16  -0.00     0.24  -0.14  -0.01    -0.00  -0.00   0.00
   8   6     0.18  -0.12   0.02    -0.15   0.11  -0.00    -0.02   0.01   0.00
   9   6    -0.04   0.01   0.01     0.03  -0.00  -0.01     0.05  -0.07   0.02
  10   1     0.02  -0.00  -0.01     0.01   0.00  -0.00     0.38  -0.21  -0.24
  11   1    -0.01  -0.01  -0.02    -0.01  -0.01  -0.02     0.44   0.13  -0.20
  12   1    -0.00  -0.02   0.00    -0.01  -0.02   0.00     0.50  -0.03   0.03
  13   1     0.12   0.04   0.01     0.12   0.03   0.00    -0.06  -0.07  -0.00
  14   1     0.11   0.04  -0.01     0.11   0.05  -0.01    -0.07  -0.04  -0.05
  15   1    -0.17  -0.07  -0.01    -0.23  -0.09  -0.01    -0.01   0.00   0.00
  16   1    -0.21  -0.08  -0.00    -0.20  -0.09  -0.00    -0.01   0.00   0.00
  17   1     0.20   0.07   0.00     0.22   0.11   0.01     0.03   0.01   0.00
  18   1     0.15   0.06   0.01     0.29   0.11   0.02     0.03   0.01   0.00
  19   1    -0.10  -0.05  -0.01    -0.19  -0.04   0.00    -0.01  -0.00   0.00
  20   1    -0.20  -0.07   0.03    -0.11  -0.06   0.01    -0.01  -0.00   0.00
  21   1    -0.25   0.14   0.03     0.11  -0.08  -0.02    -0.01   0.00   0.00
  22   1    -0.20   0.11   0.00     0.19  -0.06  -0.01    -0.00   0.00  -0.00
  23   1     0.23  -0.12  -0.00    -0.26   0.14  -0.00    -0.00  -0.00   0.00
  24   1     0.26  -0.14  -0.00    -0.18   0.12  -0.00     0.00  -0.00   0.00
  25   1    -0.16   0.10   0.01     0.11  -0.08  -0.00     0.02  -0.00   0.00
  26   1    -0.14   0.08  -0.01     0.15  -0.08   0.01     0.02  -0.01  -0.01
  27   1    -0.01   0.03  -0.01     0.01  -0.03   0.01    -0.01   0.09  -0.05
  28   1     0.01   0.00  -0.03    -0.01  -0.00   0.02    -0.08   0.06  -0.04
  29   1     0.02   0.02   0.00    -0.01  -0.02  -0.00    -0.06   0.09   0.01
                     61                     62                     63
                        a                      a                      a 
 Frequencies --  1416.3419              2955.3063              2956.3094
 Red. masses --    99.0000                99.0000                99.0000
 Frc consts  --    99.0000                99.0000                99.0000
 IR Inten    --    99.0000                99.0000                99.0000
 Raman Activ --     0.0000                 0.0000                 0.0000
 Depolar     --     0.0000                 0.0000                 0.0000
 Atom AN      X      Y      Z        X      Y      Z        X      Y      Z
   1   6    -0.09   0.00   0.03     0.00  -0.00   0.00     0.00  -0.00   0.00
   2   6     0.02   0.01   0.00    -0.02   0.05  -0.06    -0.02   0.04  -0.05
   3   6    -0.00   0.00   0.00     0.03  -0.08   0.13     0.02  -0.06   0.09
   4   6    -0.01  -0.00  -0.00    -0.02   0.05  -0.11    -0.01   0.03  -0.05
   5   6     0.01  -0.00   0.00     0.03  -0.07   0.06     0.01  -0.03   0.07
   6   6    -0.03   0.01   0.01     0.05   0.08   0.09    -0.07  -0.11  -0.16
   7   6     0.01   0.01  -0.01    -0.02  -0.03  -0.07     0.02   0.04   0.09
   8   6     0.07  -0.04  -0.00     0.01   0.01   0.03    -0.01  -0.01  -0.03
   9   6    -0.23   0.34  -0.11    -0.00  -0.00  -0.00     0.00   0.00   0.00
  10   1     0.08  -0.04  -0.05     0.00  -0.00   0.00     0.00   0.00   0.00
  11   1     0.09   0.03  -0.04    -0.01   0.01  -0.00    -0.01   0.01  -0.00
  12   1     0.10  -0.01   0.01     0.00  -0.00  -0.01     0.00  -0.00  -0.01
  13   1    -0.01  -0.02  -0.00    -0.00   0.00   0.19    -0.00   0.00   0.15
  14   1    -0.02  -0.01  -0.01     0.07  -0.19   0.06     0.06  -0.15   0.05
  15   1     0.00   0.00   0.00    -0.12   0.31  -0.10    -0.09   0.23  -0.07
  16   1    -0.00   0.00   0.00     0.01  -0.01  -0.39     0.01  -0.00  -0.25
  17   1     0.01   0.00   0.00    -0.01  -0.01   0.37    -0.00  -0.00   0.17
  18   1     0.01   0.00   0.00     0.07  -0.19   0.05     0.04  -0.11   0.03
  19   1    -0.01  -0.00   0.00    -0.00  -0.00  -0.15    -0.00   0.02  -0.25
  20   1     0.00  -0.00  -0.00    -0.12   0.27  -0.07    -0.03   0.08  -0.01
  21   1     0.03  -0.02  -0.00    -0.19  -0.30  -0.11     0.26   0.43   0.15
  22   1     0.03  -0.01  -0.00    -0.00   0.01  -0.21     0.00  -0.02   0.45
  23   1    -0.01   0.01  -0.01     0.07   0.12   0.04    -0.09  -0.17  -0.06
  24   1    -0.01   0.01  -0.00    -0.01  -0.01   0.24     0.01   0.02  -0.30
  25   1    -0.09  -0.00  -0.00     0.00   0.01  -0.09    -0.00  -0.01   0.10
  26   1    -0.08   0.02   0.04    -0.03  -0.05  -0.02     0.03   0.06   0.02
  27   1     0.07  -0.44   0.22    -0.00  -0.00  -0.00    -0.00   0.00   0.00
  28   1     0.37  -0.27   0.20     0.00   0.01   0.00    -0.00  -0.01  -0.00
  29   1     0.29  -0.41  -0.04     0.00  -0.00   0.01    -0.00   0.00  -0.00
                     64                     65                     66
                        a                      a                      a 
 Frequencies --  2957.3015              2961.0820              2965.7143
 Red. masses --    99.0000                99.0000                99.0000
 Frc consts  --    99.0000                99.0000                99.0000
 IR Inten    --    99.0000                99.0000                99.0000
 Raman Activ --     0.0000                 0.0000                 0.0000
 Depolar     --     0.0000                 0.0000                 0.0000
 Atom AN      X      Y      Z        X      Y      Z        X      Y      Z
   1   6    -0.00   0.00  -0.00    -0.00   0.00  -0.00    -0.00   0.01  -0.02
   2   6     0.02  -0.06   0.09     0.00  -0.01   0.02     0.04  -0.10   0.16
   3   6    -0.03   0.08  -0.10    -0.00   0.01  -0.00     0.01  -0.03   0.04
   4   6    -0.01   0.03  -0.05    -0.00   0.00  -0.03    -0.01   0.05  -0.16
   5   6     0.06  -0.15   0.16     0.01  -0.03  -0.00    -0.04   0.08  -0.05
   6   6     0.00   0.00  -0.04     0.05   0.07   0.07    -0.02  -0.03   0.02
   7   6    -0.00  -0.00  -0.02     0.02   0.03   0.12    -0.00  -0.00   0.01
   8   6     0.00   0.01   0.02    -0.07  -0.11  -0.19     0.01   0.01   0.01
   9   6     0.00  -0.00  -0.00     0.01   0.01   0.01    -0.00  -0.00  -0.00
  10   1    -0.00   0.00  -0.00    -0.00  -0.00  -0.00    -0.00   0.00  -0.00
  11   1     0.01  -0.02   0.00     0.00  -0.00   0.00     0.02  -0.05   0.01
  12   1    -0.00   0.00   0.02    -0.00   0.00   0.01    -0.00   0.00   0.06
  13   1     0.01  -0.00  -0.25     0.00  -0.00  -0.04     0.01  -0.00  -0.47
  14   1    -0.09   0.22  -0.07    -0.01   0.03  -0.01    -0.15   0.38  -0.12
  15   1     0.11  -0.28   0.09     0.01  -0.03   0.01    -0.04   0.10  -0.03
  16   1    -0.01   0.01   0.28    -0.00   0.00  -0.00     0.01  -0.00  -0.12
  17   1    -0.00  -0.00   0.15    -0.00  -0.00   0.10    -0.01  -0.02   0.54
  18   1     0.04  -0.11   0.03     0.01  -0.02   0.00     0.06  -0.15   0.03
  19   1    -0.00   0.02  -0.45     0.00  -0.01   0.05    -0.00   0.00   0.07
  20   1    -0.22   0.51  -0.13    -0.05   0.12  -0.04     0.13  -0.30   0.08
  21   1    -0.02  -0.03  -0.02    -0.16  -0.26  -0.10     0.08   0.13   0.06
  22   1     0.00   0.00   0.18     0.00   0.01  -0.14    -0.01  -0.01  -0.14
  23   1     0.01   0.01   0.00    -0.08  -0.14  -0.04     0.00   0.01   0.00
  24   1    -0.00  -0.00   0.08     0.01   0.02  -0.39     0.00   0.00  -0.05
  25   1     0.00   0.00  -0.06    -0.02  -0.04   0.53     0.00   0.00  -0.00
  26   1    -0.02  -0.03  -0.01     0.25   0.44   0.18    -0.03  -0.05  -0.02
  27   1    -0.00  -0.00   0.00    -0.00   0.00   0.00     0.00   0.00  -0.00
  28   1     0.00   0.00   0.00    -0.03  -0.05  -0.02     0.00   0.00   0.00
  29   1     0.00  -0.00   0.00     0.00   0.01  -0.05    -0.00  -0.00   0.00
                     67                     68                     69
                        a                      a                      a 
 Frequencies --  3030.3120              3029.4115              2971.6864
 Red. masses --    99.0000                99.0000                99.0000
 Frc consts  --    99.0000                99.0000                99.0000
 IR Inten    --    99.0000                99.0000                99.0000
 Raman Activ --     0.0000                 0.0000                 0.0000
 Depolar     --     0.0000                 0.0000                 0.0000
 Atom AN      X      Y      Z        X      Y      Z        X      Y      Z
   1   6    -0.06   0.14  -0.25    -0.00  -0.00  -0.01     0.00  -0.00   0.01
   2   6    -0.01   0.02  -0.04    -0.00   0.00  -0.00    -0.02   0.04  -0.03
   3   6    -0.00   0.01  -0.01    -0.00   0.00   0.00     0.00  -0.00  -0.06
   4   6    -0.00   0.00  -0.00    -0.00   0.00   0.00     0.00  -0.00  -0.02
   5   6    -0.00   0.00  -0.00    -0.00   0.00   0.00    -0.02   0.04   0.08
   6   6    -0.00  -0.00  -0.00     0.00   0.00   0.00    -0.04  -0.07   0.05
   7   6    -0.00  -0.00  -0.00     0.01   0.01   0.01    -0.00  -0.01  -0.15
   8   6    -0.00  -0.00  -0.00     0.01   0.02   0.04    -0.03  -0.06  -0.12
   9   6    -0.02  -0.01   0.00     0.10   0.15   0.23     0.00   0.01   0.02
  10   1     0.02   0.06  -0.02     0.01   0.01   0.01     0.00   0.00   0.00
  11   1     0.22  -0.55   0.17    -0.00   0.00  -0.00    -0.01   0.02  -0.00
  12   1    -0.02   0.00   0.71    -0.00  -0.00   0.03     0.00  -0.00  -0.02
  13   1     0.00  -0.00   0.09     0.00  -0.00   0.00    -0.00   0.00   0.05
  14   1     0.03  -0.07   0.02     0.00  -0.00   0.00     0.06  -0.15   0.05
  15   1     0.01  -0.02   0.01     0.00  -0.00   0.00    -0.01   0.02  -0.01
  16   1     0.00   0.00   0.03     0.00   0.00  -0.00    -0.00  -0.01   0.22
  17   1    -0.00  -0.00   0.01    -0.00   0.00  -0.01    -0.00  -0.00   0.07
  18   1     0.00  -0.01   0.00     0.00  -0.01   0.00    -0.01   0.02  -0.01
  19   1     0.00  -0.00   0.01    -0.00   0.00  -0.01    -0.01   0.04  -0.36
  20   1     0.00  -0.00   0.00     0.00  -0.00   0.00     0.08  -0.19   0.07
  21   1     0.00   0.00   0.00    -0.01  -0.01  -0.00     0.16   0.27   0.12
  22   1    -0.00  -0.00   0.00    -0.00   0.00  -0.01    -0.02  -0.01  -0.29
  23   1     0.00   0.00   0.00    -0.02  -0.04  -0.02     0.01   0.01  -0.01
  24   1     0.00  -0.00   0.00     0.00   0.00  -0.02    -0.00  -0.01   0.54
  25   1    -0.00  -0.00  -0.00     0.00   0.00  -0.08    -0.01  -0.02   0.30
  26   1     0.00   0.00   0.00    -0.05  -0.08  -0.04     0.14   0.23   0.10
  27   1     0.04   0.00  -0.01    -0.03   0.02   0.05     0.01   0.00   0.00
  28   1     0.02   0.04   0.02    -0.33  -0.59  -0.25    -0.02  -0.03  -0.01
  29   1    -0.00  -0.00  -0.02     0.02   0.05  -0.60     0.00   0.00  -0.06
                     70                     71                     72
                        a                      a                      a 
 Frequencies --  2973.7867              2995.8917              2974.1571
 Red. masses --    99.0000                99.0000                99.0000
 Frc consts  --    99.0000                99.0000                99.0000
 IR Inten    --    99.0000                99.0000                99.0000
 Raman Activ --     0.0000                 0.0000                 0.0000
 Depolar     --     0.0000                 0.0000                 0.0000
 Atom AN      X      Y      Z        X      Y      Z        X      Y      Z
   1   6     0.00  -0.01   0.01     0.00   0.02   0.00    -0.00   0.01  -0.01
   2   6    -0.04   0.11  -0.06     0.01  -0.03  -0.01     0.00  -0.01   0.08
   3   6    -0.01   0.03  -0.13     0.02  -0.05  -0.00     0.05  -0.13  -0.01
   4   6     0.01  -0.01  -0.10     0.05  -0.15   0.00    -0.00  -0.00   0.06
   5   6    -0.02   0.06   0.03     0.02  -0.05  -0.00    -0.02   0.05   0.04
   6   6     0.02   0.04   0.04    -0.02  -0.04  -0.01     0.04   0.07  -0.07
   7   6     0.00   0.00   0.10    -0.07  -0.12  -0.02    -0.01  -0.01  -0.03
   8   6     0.03   0.04   0.06    -0.02  -0.04  -0.00    -0.03  -0.05   0.01
   9   6    -0.00  -0.00  -0.01     0.02   0.02  -0.00     0.01   0.00   0.00
  10   1     0.01   0.00   0.01    -0.02  -0.02  -0.01    -0.00  -0.00  -0.00
  11   1    -0.02   0.05  -0.02     0.02  -0.04   0.02     0.01  -0.03   0.01
  12   1     0.00  -0.00  -0.04     0.00   0.00  -0.02    -0.00   0.00   0.02
  13   1    -0.01   0.01   0.05     0.00  -0.01   0.09     0.00   0.01  -0.29
  14   1     0.16  -0.40   0.14    -0.05   0.13  -0.05    -0.01   0.02   0.00
  15   1     0.03  -0.08   0.01    -0.06   0.16  -0.06    -0.19   0.50  -0.19
  16   1    -0.01  -0.01   0.45     0.00  -0.01   0.07     0.00  -0.02   0.24
  17   1    -0.01  -0.02   0.40     0.00  -0.03   0.19     0.01   0.01  -0.23
  18   1    -0.02   0.07  -0.04    -0.21   0.55  -0.19     0.01  -0.02   0.01
  19   1    -0.01   0.02  -0.20     0.00  -0.01   0.05    -0.01   0.03  -0.22
  20   1     0.10  -0.23   0.07    -0.07   0.17  -0.05     0.08  -0.18   0.06
  21   1    -0.08  -0.14  -0.05     0.08   0.14   0.06    -0.16  -0.27  -0.12
  22   1    -0.00   0.00  -0.06    -0.00  -0.01  -0.02     0.02   0.01   0.38
  23   1    -0.00  -0.00   0.01     0.25   0.46   0.21     0.03   0.05   0.02
  24   1     0.00   0.01  -0.36    -0.01  -0.01  -0.15    -0.00  -0.00   0.08
  25   1     0.00   0.01  -0.12    -0.00  -0.00  -0.05    -0.00  -0.00  -0.13
  26   1    -0.10  -0.17  -0.07     0.07   0.12   0.06     0.10   0.18   0.09
  27   1    -0.00  -0.00  -0.00    -0.04   0.00   0.02    -0.01   0.00   0.00
  28   1     0.01   0.02   0.01    -0.03  -0.06  -0.03    -0.01  -0.02  -0.01
  29   1    -0.00  -0.00   0.04     0.00   0.00   0.02     0.00   0.00   0.00
                     73                     74                     75
                        a                      a                      a 
 Frequencies --  2981.7229              2976.6363              2979.5471
 Red. masses --    99.0000                99.0000                99.0000
 Frc consts  --    99.0000                99.0000                99.0000
 IR Inten    --    99.0000                99.0000                99.0000
 Raman Activ --     0.0000                 0.0000                 0.0000
 Depolar     --     0.0000                 0.0000                 0.0000
 Atom AN      X      Y      Z        X      Y      Z        X      Y      Z
   1   6     0.00   0.01   0.02    -0.00   0.01  -0.00    -0.01  -0.01  -0.01
   2   6     0.03  -0.06  -0.08    -0.01   0.01   0.04    -0.04   0.10   0.08
   3   6     0.02  -0.04  -0.08     0.04  -0.09  -0.04     0.00   0.00  -0.00
   4   6    -0.02   0.07  -0.03    -0.01   0.03   0.04     0.01  -0.03  -0.02
   5   6     0.01  -0.02  -0.02     0.03  -0.07  -0.01     0.02  -0.06  -0.09
   6   6    -0.02  -0.03   0.06    -0.02  -0.04   0.07    -0.02  -0.03  -0.01
   7   6     0.02   0.04   0.05    -0.00  -0.01   0.04     0.02   0.04  -0.02
   8   6    -0.04  -0.07   0.09     0.05   0.09  -0.04    -0.03  -0.06   0.04
   9   6     0.01   0.00  -0.01    -0.01  -0.00   0.00     0.01   0.00  -0.00
  10   1    -0.02  -0.03  -0.01    -0.00   0.00  -0.00     0.03   0.03   0.02
  11   1     0.01  -0.03   0.01     0.01  -0.02   0.01    -0.01   0.03  -0.01
  12   1     0.00   0.00  -0.06    -0.00   0.00   0.00    -0.00  -0.00   0.03
  13   1    -0.00  -0.02   0.38     0.00   0.01  -0.19    -0.00   0.03  -0.48
  14   1    -0.09   0.24  -0.10     0.02  -0.06   0.03     0.16  -0.41   0.16
  15   1    -0.07   0.16  -0.07    -0.15   0.37  -0.15     0.00  -0.00  -0.00
  16   1    -0.00  -0.02   0.34     0.00  -0.02   0.29    -0.00  -0.00   0.03
  17   1    -0.00   0.01   0.02     0.00   0.02  -0.23     0.00  -0.01   0.12
  18   1     0.10  -0.26   0.08     0.06  -0.15   0.06    -0.04   0.10  -0.04
  19   1     0.01  -0.01   0.12     0.01  -0.02   0.12     0.01  -0.04   0.39
  20   1    -0.03   0.08  -0.03    -0.11   0.26  -0.08    -0.10   0.24  -0.08
  21   1     0.07   0.12   0.06     0.10   0.16   0.07     0.08   0.13   0.05
  22   1    -0.01  -0.01  -0.26    -0.01  -0.01  -0.33    -0.00  -0.00  -0.01
  23   1    -0.09  -0.15  -0.06     0.02   0.04   0.03    -0.09  -0.16  -0.08
  24   1     0.00   0.01  -0.10     0.00   0.00  -0.16     0.00   0.00   0.15
  25   1    -0.00   0.01  -0.47     0.00  -0.00   0.33    -0.00   0.00  -0.28
  26   1     0.15   0.26   0.14    -0.19  -0.33  -0.17     0.13   0.22   0.12
  27   1    -0.04  -0.00   0.01     0.02   0.00  -0.01    -0.02  -0.00   0.01
  28   1    -0.00  -0.01  -0.01     0.01   0.03   0.01    -0.00  -0.01  -0.01
  29   1     0.00  -0.00   0.05    -0.00   0.00  -0.02     0.00  -0.00   0.01
                     76                     77                     78
                        a                      a                      a 
 Frequencies --  2989.2264              3032.0477              3031.9958
 Red. masses --    99.0000                99.0000                99.0000
 Frc consts  --    99.0000                99.0000                99.0000
 IR Inten    --    99.0000                99.0000                99.0000
 Raman Activ --     0.0000                 0.0000                 0.0000
 Depolar     --     0.0000                 0.0000                 0.0000
 Atom AN      X      Y      Z        X      Y      Z        X      Y      Z
   1   6     0.00   0.02   0.01     0.06   0.24   0.12    -0.02  -0.06  -0.05
   2   6     0.02  -0.04  -0.04    -0.01   0.03   0.01     0.00  -0.01  -0.01
   3   6     0.02  -0.04  -0.04    -0.00   0.01   0.01     0.00  -0.00  -0.00
   4   6     0.03  -0.08  -0.05    -0.00   0.01   0.00    -0.00   0.00  -0.00
   5   6     0.01  -0.02  -0.06    -0.00   0.00   0.00    -0.00   0.00  -0.00
   6   6     0.02   0.03  -0.05     0.00   0.00   0.00     0.00   0.00  -0.00
   7   6     0.06   0.11  -0.03     0.00   0.00  -0.00     0.01   0.01  -0.01
   8   6     0.03   0.05  -0.03     0.00   0.01  -0.00     0.01   0.02  -0.02
   9   6    -0.02  -0.01   0.01     0.06   0.03  -0.04     0.20   0.10  -0.16
  10   1    -0.02  -0.03  -0.01    -0.40  -0.50  -0.25     0.12   0.15   0.07
  11   1     0.01  -0.03   0.01     0.19  -0.40   0.18    -0.04   0.09  -0.04
  12   1     0.00   0.00  -0.04     0.02   0.05  -0.34    -0.01  -0.01   0.16
  13   1     0.00  -0.01   0.22    -0.00   0.00  -0.07     0.00  -0.00   0.03
  14   1    -0.07   0.17  -0.07     0.03  -0.07   0.03    -0.01   0.02  -0.01
  15   1    -0.06   0.16  -0.07     0.02  -0.04   0.02    -0.00   0.01  -0.00
  16   1    -0.00  -0.01   0.22    -0.00   0.00  -0.04     0.00  -0.00   0.02
  17   1    -0.00  -0.03   0.29     0.00   0.00  -0.01    -0.00  -0.00   0.01
  18   1    -0.12   0.31  -0.12     0.01  -0.02   0.01     0.00  -0.01   0.00
  19   1     0.01  -0.02   0.23    -0.00   0.00  -0.01     0.00  -0.00   0.01
  20   1    -0.03   0.08  -0.03     0.00  -0.01   0.00     0.00  -0.00   0.00
  21   1    -0.06  -0.11  -0.05    -0.00  -0.01  -0.00    -0.01  -0.01  -0.00
  22   1     0.01   0.00   0.23     0.00   0.00   0.00     0.00   0.00   0.02
  23   1    -0.22  -0.40  -0.19    -0.01  -0.02  -0.01    -0.03  -0.05  -0.02
  24   1     0.01   0.01   0.30    -0.00   0.00   0.01    -0.00   0.00   0.05
  25   1     0.00  -0.00   0.21     0.00   0.00   0.02    -0.00  -0.00   0.09
  26   1    -0.10  -0.17  -0.09    -0.01  -0.02  -0.01    -0.03  -0.05  -0.03
  27   1     0.05   0.00  -0.02    -0.18  -0.00   0.06    -0.57  -0.01   0.19
  28   1     0.02   0.04   0.02    -0.06  -0.11  -0.06    -0.16  -0.32  -0.18
  29   1    -0.00   0.00  -0.05     0.01  -0.00   0.14     0.03  -0.01   0.54
                     79                     80                     81
                        a                      a                      a 
 Frequencies --  2983.7207              3037.5583              3037.8409
 Red. masses --    99.0000                99.0000                99.0000
 Frc consts  --    99.0000                99.0000                99.0000
 IR Inten    --    99.0000                99.0000                99.0000
 Raman Activ --     0.0000                 0.0000                 0.0000
 Depolar     --     0.0000                 0.0000                 0.0000
 Atom AN      X      Y      Z        X      Y      Z        X      Y      Z
   1   6    -0.00   0.00  -0.01    -0.10  -0.00   0.02     0.10   0.00  -0.02
   2   6     0.01  -0.02   0.05    -0.01   0.00   0.00     0.01  -0.00  -0.00
   3   6     0.01  -0.03   0.08    -0.00   0.00   0.00     0.00  -0.00  -0.00
   4   6     0.04  -0.11   0.09    -0.00   0.00   0.00     0.00   0.00   0.00
   5   6     0.00  -0.01   0.12    -0.00   0.00  -0.00     0.00  -0.00  -0.00
   6   6     0.01   0.01   0.11     0.00   0.00  -0.00    -0.00  -0.00   0.00
   7   6     0.05   0.09   0.09     0.00   0.00  -0.00     0.00   0.00  -0.00
   8   6     0.01   0.01   0.07    -0.00   0.00  -0.00    -0.00   0.00  -0.00
   9   6    -0.00  -0.01  -0.01    -0.09   0.07  -0.01    -0.09   0.06  -0.01
  10   1     0.00   0.01   0.00     0.24   0.33   0.17    -0.25  -0.35  -0.17
  11   1     0.01  -0.02   0.01     0.13  -0.34   0.12    -0.13   0.34  -0.13
  12   1    -0.00  -0.00   0.04    -0.00   0.01  -0.36     0.00  -0.01   0.37
  13   1     0.00   0.00  -0.15    -0.00   0.00  -0.01     0.00  -0.00   0.01
  14   1    -0.03   0.07  -0.02     0.00  -0.01   0.00    -0.00   0.01  -0.00
  15   1    -0.03   0.09  -0.02     0.00  -0.01   0.00    -0.00   0.01  -0.00
  16   1     0.01   0.00  -0.25    -0.00   0.00  -0.01     0.00  -0.00   0.01
  17   1     0.01  -0.01  -0.18     0.00   0.00  -0.00    -0.00  -0.00   0.00
  18   1    -0.15   0.39  -0.13     0.00  -0.00   0.00    -0.00   0.00  -0.00
  19   1    -0.01   0.04  -0.42    -0.00   0.00  -0.00     0.00  -0.00   0.01
  20   1    -0.00   0.00   0.01     0.00  -0.00   0.00    -0.00   0.01  -0.00
  21   1    -0.01  -0.01   0.01    -0.00  -0.00  -0.00     0.00   0.00   0.00
  22   1    -0.01  -0.00  -0.39     0.00   0.00   0.00     0.00  -0.00  -0.00
  23   1    -0.20  -0.36  -0.15    -0.00  -0.01  -0.00    -0.00  -0.01  -0.00
  24   1     0.01   0.02  -0.15     0.00   0.00   0.01     0.00   0.00   0.01
  25   1     0.00   0.01  -0.22    -0.00   0.00   0.01    -0.00   0.00   0.00
  26   1    -0.03  -0.05  -0.01    -0.00  -0.00  -0.00    -0.00   0.00  -0.00
  27   1    -0.01  -0.00  -0.00     0.48   0.03  -0.18     0.48   0.03  -0.17
  28   1     0.02   0.03   0.01    -0.16  -0.26  -0.13    -0.15  -0.25  -0.12
  29   1    -0.00  -0.00   0.04    -0.01  -0.01   0.35    -0.01  -0.01   0.34
