      -----------------------------------------------------------      
     |                   =====================                   |     
     |                           x T B                           |     
     |                   =====================                   |     
     |                         S. Grimme                         |     
     |          Mulliken Center for Theoretical Chemistry        |     
     |                    University of Bonn                     |     
      -----------------------------------------------------------      

   * xtb version 6.6.1 (8d0f1dd) compiled by 'stahn@M-Bot' on 2023-08-01

   xtb is free software: you can redistribute it and/or modify it under
   the terms of the GNU Lesser General Public License as published by
   the Free Software Foundation, either version 3 of the License, or
   (at your option) any later version.
   
   xtb is distributed in the hope that it will be useful,
   but WITHOUT ANY WARRANTY; without even the implied warranty of
   MERCHANTABILITY or FITNESS FOR A PARTICULAR PURPOSE.  See the
   GNU Lesser General Public License for more details.
   
   Cite this work as:
   * C. Bannwarth, E. Caldeweyher, S. Ehlert, A. Hansen, P. Pracht,
     J. Seibert, S. Spicher, S. Grimme, WIREs Comput. Mol. Sci., 2020, 11,
     e01493. DOI: 10.1002/wcms.1493
   
   for GFN2-xTB:
   * C. Bannwarth, S. Ehlert and S. Grimme., J. Chem. Theory Comput., 2019,
     15, 1652-1671. DOI: 10.1021/acs.jctc.8b01176
   for GFN1-xTB:
   * S. Grimme, C. Bannwarth, P. Shushkov, J. Chem. Theory Comput., 2017,
     13, 1989-2009. DOI: 10.1021/acs.jctc.7b00118
   for GFN0-xTB:
   * P. Pracht, E. Caldeweyher, S. Ehlert, S. Grimme, ChemRxiv, 2019, preprint.
     DOI: 10.26434/chemrxiv.8326202.v1
   for GFN-FF:
   * S. Spicher and S. Grimme, Angew. Chem. Int. Ed., 2020, 59, 15665-15673.
     DOI: 10.1002/anie.202004239
   
   for ALPB and GBSA implicit solvation:
   * S. Ehlert, M. Stahn, S. Spicher, S. Grimme, J. Chem. Theory Comput.,
     2021, 17, 4250-4261. DOI: 10.1021/acs.jctc.1c00471
   
   for DFT-D4:
   * E. Caldeweyher, C. Bannwarth and S. Grimme, J. Chem. Phys., 2017,
     147, 034112. DOI: 10.1063/1.4993215
   * E. Caldeweyher, S. Ehlert, A. Hansen, H. Neugebauer, S. Spicher,
     C. Bannwarth and S. Grimme, J. Chem. Phys., 2019, 150, 154122.
     DOI: 10.1063/1.5090222
   * E. Caldeweyher, J.-M. Mewes, S. Ehlert and S. Grimme, Phys. Chem. Chem. Phys.
     2020, 22, 8499-8512. DOI: 10.1039/D0CP00502A
   
   for sTDA-xTB:
   * S. Grimme and C. Bannwarth, J. Chem. Phys., 2016, 145, 054103.
     DOI: 10.1063/1.4959605
   
   in the mass-spec context:
   * V. Asgeirsson, C. Bauer and S. Grimme, Chem. Sci., 2017, 8, 4879.
     DOI: 10.1039/c7sc00601b
   * J. Koopman and S. Grimme, ACS Omega 2019, 4, 12, 15120-15133.
     DOI: 10.1021/acsomega.9b02011
   
   for metadynamics refer to:
   * S. Grimme, J. Chem. Theory Comput., 2019, 155, 2847-2862
     DOI: 10.1021/acs.jctc.9b00143
   
   for SPH calculations refer to:
   * S. Spicher and S. Grimme, J. Chem. Theory Comput., 2021, 17, 1701-1714
     DOI: 10.1021/acs.jctc.0c01306
   
   with help from (in alphabetical order)
   P. Atkinson, C. Bannwarth, F. Bohle, G. Brandenburg, E. Caldeweyher
   M. Checinski, S. Dohm, S. Ehlert, S. Ehrlich, I. Gerasimov, C. Hölzer
   A. Katbashev, J. Koopman, C. Lavigne, S. Lehtola, F. März, M. Müller,
   F. Musil, H. Neugebauer, J. Pisarek, C. Plett, P. Pracht, F. Pultar,
   J. Seibert, P. Shushkov, S. Spicher, M. Stahn, M. Steiner, T. Strunk,
   J. Stückrath, T. Rose, and J. Unsleber
   
 * started run on 2024/04/23 at 12:10:22.983     

           -------------------------------------------------
          |                Calculation Setup                |
           -------------------------------------------------

          program call               : xtb unfolded.xyz --gfn 2 --ohess -P 4
          coordinate file            : unfolded.xyz
          omp threads                :                     4

   ID    Z sym.   atoms
    1    6 C      1-9
    2    1 H      10-29

           -------------------------------------------------
          |                 G F N 2 - x T B                 |
           -------------------------------------------------

        Reference                      10.1021/acs.jctc.8b01176
      * Hamiltonian:
        H0-scaling (s, p, d)           1.850000    2.230000    2.230000
        zeta-weighting                 0.500000
      * Dispersion:
        s8                             2.700000
        a1                             0.520000
        a2                             5.000000
        s9                             5.000000
      * Repulsion:
        kExp                           1.500000    1.000000
        rExp                           1.000000
      * Coulomb:
        alpha                          2.000000
        third order                    shell-resolved
        anisotropic                    true
        a3                             3.000000
        a5                             4.000000
        cn-shift                       1.200000
        cn-exp                         4.000000
        max-rad                        5.000000


          ...................................................
          :                      SETUP                      :
          :.................................................:
          :  # basis functions                  56          :
          :  # atomic orbitals                  56          :
          :  # shells                           38          :
          :  # electrons                        56          :
          :  max. iterations                   250          :
          :  Hamiltonian                  GFN2-xTB          :
          :  restarted?                      false          :
          :  GBSA solvation                  false          :
          :  PC potential                    false          :
          :  electronic temp.          300.0000000     K    :
          :  accuracy                    1.0000000          :
          :  -> integral cutoff          0.2500000E+02      :
          :  -> integral neglect         0.1000000E-07      :
          :  -> SCF convergence          0.1000000E-05 Eh   :
          :  -> wf. convergence          0.1000000E-03 e    :
          :  Broyden damping             0.4000000          :
          ...................................................

 iter      E             dE          RMSdq      gap      omega  full diag
   1    -29.8364273 -0.298364E+02  0.252E+00   12.62       0.0  T
   2    -29.9144568 -0.780295E-01  0.135E+00   12.42       1.0  T
   3    -29.9154114 -0.954630E-03  0.718E-01   12.40       1.0  T
   4    -29.9156322 -0.220776E-03  0.858E-02   12.43       1.0  T
   5    -29.9156397 -0.748300E-05  0.449E-02   12.43       1.0  T
   6    -29.9156414 -0.171207E-05  0.252E-03   12.43       7.4  T
   7    -29.9156414 -0.433868E-07  0.114E-03   12.43      16.3  T
   8    -29.9156414 -0.352630E-08  0.253E-04   12.43      73.3  T
   9    -29.9156414 -0.147615E-09  0.947E-05   12.43     196.1  T

   *** convergence criteria satisfied after 9 iterations ***

         #    Occupation            Energy/Eh            Energy/eV
      -------------------------------------------------------------
         1        2.0000           -0.6216760             -16.9167
       ...           ...                  ...                  ...
        22        2.0000           -0.4348710             -11.8334
        23        2.0000           -0.4336830             -11.8011
        24        2.0000           -0.4254047             -11.5759
        25        2.0000           -0.4206915             -11.4476
        26        2.0000           -0.4187491             -11.3947
        27        2.0000           -0.4156816             -11.3113
        28        2.0000           -0.4104092             -11.1678 (HOMO)
        29                          0.0464399               1.2637 (LUMO)
        30                          0.0671377               1.8269
        31                          0.1012987               2.7565
        32                          0.1049718               2.8564
        33                          0.1198993               3.2626
       ...                                ...                  ...
        56                          0.3077137               8.3733
      -------------------------------------------------------------
                  HL-Gap            0.4568491 Eh           12.4315 eV
             Fermi-level           -0.1819846 Eh           -4.9521 eV

 SCC (total)                   0 d,  0 h,  0 min,  0.012 sec
 SCC setup                      ...        0 min,  0.001 sec (  8.562%)
 Dispersion                     ...        0 min,  0.000 sec (  1.658%)
 classical contributions        ...        0 min,  0.000 sec (  0.214%)
 integral evaluation            ...        0 min,  0.001 sec (  6.930%)
 iterations                     ...        0 min,  0.007 sec ( 55.041%)
 molecular gradient             ...        0 min,  0.002 sec ( 19.144%)
 printout                       ...        0 min,  0.001 sec (  8.183%)

         :::::::::::::::::::::::::::::::::::::::::::::::::::::
         ::                     SUMMARY                     ::
         :::::::::::::::::::::::::::::::::::::::::::::::::::::
         :: total energy             -29.484228748611 Eh    ::
         :: gradient norm              0.027535586189 Eh/a0 ::
         :: HOMO-LUMO gap             12.431496895823 eV    ::
         ::.................................................::
         :: SCC energy               -29.915641414181 Eh    ::
         :: -> isotropic ES            0.004961162410 Eh    ::
         :: -> anisotropic ES          0.010055547079 Eh    ::
         :: -> anisotropic XC          0.017955840479 Eh    ::
         :: -> dispersion             -0.017366357315 Eh    ::
         :: repulsion energy           0.431467538946 Eh    ::
         :: add. restraining           0.000000000000 Eh    ::
         :: total charge              -0.000000000000 e     ::
         :::::::::::::::::::::::::::::::::::::::::::::::::::::

      ----------------------------------------------------------- 
     |                   =====================                   |
     |                        A N C O P T                        |
     |                   =====================                   |
     |               Approximate Normal Coordinate               |
     |                Rational Function Optimizer                |
      ----------------------------------------------------------- 

          ...................................................
          :                      SETUP                      :
          :.................................................:
          :   optimization level            normal          :
          :   max. optcycles                   200          :
          :   ANC micro-cycles                  20          :
          :   degrees of freedom                81          :
          :.................................................:
          :   RF solver                   davidson          :
          :   write xtbopt.log                true          :
          :   linear?                        false          :
          :   energy convergence         0.5000000E-05 Eh   :
          :   grad. convergence          0.1000000E-02 Eh/α :
          :   maxmium RF displ.          2.0000000          :
          :   Hlow (freq-cutoff)         0.2000000E-01      :
          :   Hmax (freq-cutoff)         5.0000000          :
          :   S6 in model hess.         70.0000000          :
          ...................................................

generating ANC from model Hessian ...
Using Lindh-Hessian (1995)
 Shifting diagonal of input Hessian by   1.881162789721134E-002
 Lowest  eigenvalues of input Hessian
    0.000000    0.000000    0.000000    0.000000    0.000000    0.000000
    0.020000    0.021166    0.022845    0.023177    0.023539    0.024702
    0.026241    0.027594    0.029958    0.033075    0.033189    0.035658
 Highest eigenvalues
    1.202903    1.216900    1.239362    1.259110    1.303851    1.328114
 

........................................................................
.............................. CYCLE    1 ..............................
........................................................................

 iter      E             dE          RMSdq      gap      omega  full diag
   1    -29.9156414 -0.299156E+02  0.233E-05   12.43       0.0  T
   2    -29.9156414 -0.139622E-11  0.131E-05   12.43    1416.0  T
   3    -29.9156414 -0.103029E-12  0.466E-06   12.43    3988.8  T
     SCC iter.                  ...        0 min,  0.002 sec
     gradient                   ...        0 min,  0.002 sec
 * total energy  :   -29.4842287 Eh     change       -0.1318412E-10 Eh
   gradient norm :     0.0275353 Eh/α   predicted     0.0000000E+00 (-100.00%)
   displ. norm   :     0.1610207 α      lambda       -0.2472252E-02
   maximum displ.:     0.0873080 α      in ANC's #36, #34, #24, ...

........................................................................
.............................. CYCLE    2 ..............................
........................................................................

 iter      E             dE          RMSdq      gap      omega  full diag
   1    -29.9237826 -0.299238E+02  0.131E-01   12.58       0.0  T
   2    -29.9237863 -0.368161E-05  0.754E-02   12.58       1.0  T
   3    -29.9237869 -0.621366E-06  0.378E-03   12.58       4.9  T
   4    -29.9237869 -0.494462E-07  0.128E-03   12.58      14.6  T
   5    -29.9237870 -0.219571E-08  0.678E-04   12.58      27.4  T
   6    -29.9237870 -0.352333E-09  0.418E-05   12.58     444.4  T
     SCC iter.                  ...        0 min,  0.003 sec
     gradient                   ...        0 min,  0.002 sec
 * total energy  :   -29.4858506 Eh     change       -0.1621811E-02 Eh
   gradient norm :     0.0122094 Eh/α   predicted    -0.1268182E-02 ( -21.80%)
   displ. norm   :     0.0841741 α      lambda       -0.4406605E-03
   maximum displ.:     0.0357534 α      in ANC's #36, #9, #8, ...

........................................................................
.............................. CYCLE    3 ..............................
........................................................................

 iter      E             dE          RMSdq      gap      omega  full diag
   1    -29.9293998 -0.299294E+02  0.609E-02   12.66       0.0  T
   2    -29.9294021 -0.230756E-05  0.344E-02   12.66       1.0  T
   3    -29.9294022 -0.104925E-06  0.391E-03   12.66       4.7  T
   4    -29.9294023 -0.254469E-07  0.667E-04   12.66      27.9  T
   5    -29.9294023 -0.191699E-08  0.371E-04   12.66      50.1  T
     SCC iter.                  ...        0 min,  0.003 sec
     gradient                   ...        0 min,  0.003 sec
 * total energy  :   -29.4860892 Eh     change       -0.2385935E-03 Eh
   gradient norm :     0.0020866 Eh/α   predicted    -0.2219541E-03 (  -6.97%)
   displ. norm   :     0.0222399 α      lambda       -0.1696917E-04
   maximum displ.:     0.0137251 α      in ANC's #9, #1, #8, ...

........................................................................
.............................. CYCLE    4 ..............................
........................................................................

 iter      E             dE          RMSdq      gap      omega  full diag
   1    -29.9302600 -0.299303E+02  0.767E-03   12.67       0.0  T
   2    -29.9302601 -0.763249E-07  0.429E-03   12.67       4.3  T
   3    -29.9302601 -0.190503E-08  0.811E-04   12.68      22.9  T
   4    -29.9302601 -0.750486E-09  0.139E-04   12.68     133.5  T
     SCC iter.                  ...        0 min,  0.002 sec
     gradient                   ...        0 min,  0.002 sec
 * total energy  :   -29.4861015 Eh     change       -0.1238406E-04 Eh
   gradient norm :     0.0006061 Eh/α   predicted    -0.8490077E-05 ( -31.44%)
   displ. norm   :     0.0520151 α      lambda       -0.1353684E-04
   maximum displ.:     0.0324134 α      in ANC's #1, #9, #8, ...

........................................................................
.............................. CYCLE    5 ..............................
........................................................................

 iter      E             dE          RMSdq      gap      omega  full diag
   1    -29.9310258 -0.299310E+02  0.123E-02   12.70       0.0  T
   2    -29.9310259 -0.688495E-07  0.713E-03   12.70       2.6  T
   3    -29.9310259 -0.605987E-08  0.636E-04   12.70      29.2  T
   4    -29.9310259 -0.137045E-08  0.217E-04   12.70      85.7  T
     SCC iter.                  ...        0 min,  0.002 sec
     gradient                   ...        0 min,  0.002 sec
 * total energy  :   -29.4861123 Eh     change       -0.1079086E-04 Eh
   gradient norm :     0.0018002 Eh/α   predicted    -0.6779869E-05 ( -37.17%)
   displ. norm   :     0.0325005 α      lambda       -0.6089167E-05
   maximum displ.:     0.0257962 α      in ANC's #1, #9, #2, ...

........................................................................
.............................. CYCLE    6 ..............................
........................................................................

 iter      E             dE          RMSdq      gap      omega  full diag
   1    -29.9308016 -0.299308E+02  0.480E-03   12.70       0.0  T
   2    -29.9308017 -0.135599E-07  0.284E-03   12.70       6.5  T
   3    -29.9308017 -0.469313E-09  0.248E-04   12.70      74.8  T
   4    -29.9308017 -0.179345E-09  0.667E-05   12.70     278.5  T
     SCC iter.                  ...        0 min,  0.002 sec
     gradient                   ...        0 min,  0.002 sec
 * total energy  :   -29.4861203 Eh     change       -0.7970193E-05 Eh
   gradient norm :     0.0010620 Eh/α   predicted    -0.3054179E-05 ( -61.68%)
   displ. norm   :     0.1346477 α      lambda       -0.1996615E-04
   maximum displ.:     0.1123054 α      in ANC's #1, #9, #2, ...

........................................................................
.............................. CYCLE    7 ..............................
........................................................................

 iter      E             dE          RMSdq      gap      omega  full diag
   1    -29.9303130 -0.299303E+02  0.180E-02   12.72       0.0  T
   2    -29.9303131 -0.827927E-07  0.107E-02   12.72       1.7  T
   3    -29.9303131 -0.661115E-08  0.570E-04   12.72      32.6  T
   4    -29.9303131 -0.144487E-08  0.232E-04   12.72      80.1  T
     SCC iter.                  ...        0 min,  0.002 sec
     gradient                   ...        0 min,  0.002 sec
 * total energy  :   -29.4861387 Eh     change       -0.1843349E-04 Eh
   gradient norm :     0.0011132 Eh/α   predicted    -0.1011521E-04 ( -45.13%)
   displ. norm   :     0.0401774 α      lambda       -0.4227918E-05
   maximum displ.:     0.0357493 α      in ANC's #1, #2, #8, ...

........................................................................
.............................. CYCLE    8 ..............................
........................................................................

 iter      E             dE          RMSdq      gap      omega  full diag
   1    -29.9302891 -0.299303E+02  0.470E-03   12.71       0.0  T
   2    -29.9302891 -0.300363E-08  0.279E-03   12.71       6.7  T
   3    -29.9302891 -0.566306E-09  0.145E-04   12.71     127.6  T
   4    -29.9302891 -0.161457E-09  0.729E-05   12.71     254.8  T
     SCC iter.                  ...        0 min,  0.002 sec
     gradient                   ...        0 min,  0.003 sec
 * total energy  :   -29.4861442 Eh     change       -0.5466163E-05 Eh
   gradient norm :     0.0009474 Eh/α   predicted    -0.2128811E-05 ( -61.05%)
   displ. norm   :     0.0337989 α      lambda       -0.4696219E-05
   maximum displ.:     0.0286917 α      in ANC's #1, #2, #8, ...

........................................................................
.............................. CYCLE    9 ..............................
........................................................................

 iter      E             dE          RMSdq      gap      omega  full diag
   1    -29.9303519 -0.299304E+02  0.444E-03   12.69       0.0  T
   2    -29.9303519 -0.120920E-07  0.266E-03   12.69       7.0  T
   3    -29.9303519 -0.489877E-09  0.236E-04   12.69      78.8  T
   4    -29.9303519 -0.434678E-09  0.811E-05   12.69     228.9  T
     SCC iter.                  ...        0 min,  0.002 sec
     gradient                   ...        0 min,  0.002 sec
 * total energy  :   -29.4861496 Eh     change       -0.5411739E-05 Eh
   gradient norm :     0.0002831 Eh/α   predicted    -0.2351254E-05 ( -56.55%)
   displ. norm   :     0.0330945 α      lambda       -0.2942863E-05
   maximum displ.:     0.0286545 α      in ANC's #1, #2, #9, ...

........................................................................
.............................. CYCLE   10 ..............................
........................................................................

 iter      E             dE          RMSdq      gap      omega  full diag
   1    -29.9303852 -0.299304E+02  0.416E-03   12.68       0.0  T
   2    -29.9303852 -0.561823E-08  0.248E-03   12.68       7.5  T
   3    -29.9303852 -0.307633E-09  0.163E-04   12.68     113.9  T
   4    -29.9303852 -0.281094E-09  0.632E-05   12.68     293.8  T
     SCC iter.                  ...        0 min,  0.002 sec
     gradient                   ...        0 min,  0.002 sec
 * total energy  :   -29.4861530 Eh     change       -0.3413626E-05 Eh
   gradient norm :     0.0004224 Eh/α   predicted    -0.1477036E-05 ( -56.73%)
   displ. norm   :     0.0281195 α      lambda       -0.1968982E-05
   maximum displ.:     0.0243678 α      in ANC's #1, #2, #5, ...

   *** GEOMETRY OPTIMIZATION CONVERGED AFTER 10 ITERATIONS ***

------------------------------------------------------------------------
 total energy gain   :        -0.0019243 Eh       -1.2075 kcal/mol
 total RMSD          :         0.0798896 a0        0.0423 Å
 total power (kW/mol):        -0.5052181 (step)  -66.4055 (real)
------------------------------------------------------------------------

 ANCopt (total)                0 d,  0 h,  0 min,  0.076 sec
 optimizer setup                ...        0 min,  0.002 sec (  2.734%)
 model hessian                  ...        0 min,  0.009 sec ( 11.249%)
 ANC generation                 ...        0 min,  0.001 sec (  1.367%)
 coordinate transformation      ...        0 min,  0.000 sec (  0.175%)
 single point calculation       ...        0 min,  0.058 sec ( 76.163%)
 optimization log               ...        0 min,  0.001 sec (  1.314%)
 hessian update                 ...        0 min,  0.001 sec (  0.930%)
 rational function              ...        0 min,  0.001 sec (  1.736%)

================
 final structure:
================
29
 xtb: 6.6.1 (8d0f1dd)
C           -4.74473281722370       -0.61448898647113        0.16048558708592
C           -3.30894731029280       -0.77576466381471       -0.32375686321057
C           -2.40008635847187        0.33126350458353        0.20577831070674
C           -0.95821189514502        0.16436344385520       -0.26808788116687
C           -0.04274293708222        1.25169434385465        0.29098306922509
C            1.38630214007680        1.17750748725955       -0.24909007733376
C            2.14741165487460       -0.06045553791562        0.22053130800793
C            3.59810850703829       -0.05564077106460       -0.25612277572515
C            4.34451665798073       -1.30694553339999        0.19098503271466
H           -5.37212103287630       -1.41428670601982       -0.22641660773692
H           -5.15553119170889        0.33606487661007       -0.17298449790350
H           -4.78561438946935       -0.64142583196770        1.24733109381536
H           -3.29105549168529       -0.76517325473749       -1.41603151870741
H           -2.92365351482551       -1.74441394842663        0.00315209287354
H           -2.78162244303017        1.30010889819914       -0.12546060160746
H           -2.42372178212564        0.32390341458043        1.29822456153354
H           -0.93122777859868        0.19755858664738       -1.35996805846300
H           -0.59720477328045       -0.81702889539853        0.04387774920930
H           -0.01995705881586        1.17964023449267        1.38094829026653
H           -0.46244303355679        2.22787276864704        0.03486531418416
H            1.93001752591115        2.06747354261263        0.07836317555381
H            1.35960558022802        1.19247873005240       -1.34132779494040
H            1.65723314122177       -0.95946032946577       -0.15665694662145
H            2.12753202446885       -0.10262466679312        1.31223327518996
H            3.61847516016245        0.00807913379332       -1.34659084749229
H            4.10559617666903        0.82896123389138        0.13566795118169
H            5.37380897989648       -1.28642454395656       -0.15974424650978
H            3.86465756823271       -2.19909133220317       -0.20598567134354
H            4.35308869142769       -1.37872919744459        1.27655157721388
           -------------------------------------------------
          |                Final Singlepoint                |
           -------------------------------------------------

          ...................................................
          :                      SETUP                      :
          :.................................................:
          :  # basis functions                  56          :
          :  # atomic orbitals                  56          :
          :  # shells                           38          :
          :  # electrons                        56          :
          :  max. iterations                   250          :
          :  Hamiltonian                  GFN2-xTB          :
          :  restarted?                      false          :
          :  GBSA solvation                  false          :
          :  PC potential                    false          :
          :  electronic temp.          300.0000000     K    :
          :  accuracy                    1.0000000          :
          :  -> integral cutoff          0.2500000E+02      :
          :  -> integral neglect         0.1000000E-07      :
          :  -> SCF convergence          0.1000000E-05 Eh   :
          :  -> wf. convergence          0.1000000E-03 e    :
          :  Broyden damping             0.4000000          :
          ...................................................

 iter      E             dE          RMSdq      gap      omega  full diag
   1    -29.9303852 -0.299304E+02  0.269E-05   12.68       0.0  T
   2    -29.9303852 -0.582645E-12  0.156E-05   12.68    1193.2  T
   3    -29.9303852 -0.675016E-13  0.257E-06   12.68    7227.3  T

   *** convergence criteria satisfied after 3 iterations ***

         #    Occupation            Energy/Eh            Energy/eV
      -------------------------------------------------------------
         1        2.0000           -0.6225753             -16.9411
       ...           ...                  ...                  ...
        22        2.0000           -0.4343383             -11.8189
        23        2.0000           -0.4327458             -11.7756
        24        2.0000           -0.4256749             -11.5832
        25        2.0000           -0.4212349             -11.4624
        26        2.0000           -0.4188716             -11.3981
        27        2.0000           -0.4152283             -11.2989
        28        2.0000           -0.4118709             -11.2076 (HOMO)
        29                          0.0542913               1.4773 (LUMO)
        30                          0.0749194               2.0387
        31                          0.1114982               3.0340
        32                          0.1151633               3.1338
        33                          0.1211277               3.2961
       ...                                ...                  ...
        56                          0.3241178               8.8197
      -------------------------------------------------------------
                  HL-Gap            0.4661622 Eh           12.6849 eV
             Fermi-level           -0.1787898 Eh           -4.8651 eV

 SCC (total)                   0 d,  0 h,  0 min,  0.007 sec
 SCC setup                      ...        0 min,  0.001 sec ( 13.437%)
 Dispersion                     ...        0 min,  0.000 sec (  1.115%)
 classical contributions        ...        0 min,  0.000 sec (  0.306%)
 integral evaluation            ...        0 min,  0.001 sec ( 10.183%)
 iterations                     ...        0 min,  0.002 sec ( 28.219%)
 molecular gradient             ...        0 min,  0.002 sec ( 32.589%)
 printout                       ...        0 min,  0.001 sec ( 13.667%)

         :::::::::::::::::::::::::::::::::::::::::::::::::::::
         ::                     SUMMARY                     ::
         :::::::::::::::::::::::::::::::::::::::::::::::::::::
         :: total energy             -29.486153022909 Eh    ::
         :: gradient norm              0.000422189533 Eh/a0 ::
         :: HOMO-LUMO gap             12.684918951666 eV    ::
         ::.................................................::
         :: SCC energy               -29.930385189155 Eh    ::
         :: -> isotropic ES            0.005298406022 Eh    ::
         :: -> anisotropic ES          0.009638158774 Eh    ::
         :: -> anisotropic XC          0.018200117063 Eh    ::
         :: -> dispersion             -0.017406504789 Eh    ::
         :: repulsion energy           0.444291519384 Eh    ::
         :: add. restraining           0.000000000000 Eh    ::
         :: total charge               0.000000000000 e     ::
         :::::::::::::::::::::::::::::::::::::::::::::::::::::

           ------------------------------------------------- 
          |                Numerical Hessian                |
           ------------------------------------------------- 
step length          :   0.00500
SCC accuracy         :   0.30000
Hessian scale factor :   1.00000
frozen atoms in %    :   0.00000    0
RMS gradient         :   0.00042
estimated CPU  time      0.13 min
estimated wall time      0.03 min

writing file <hessian>.

 projected vibrational frequencies (cm⁻¹)
eigval :       -0.00    -0.00     0.00     0.00     0.00     0.00
eigval :       39.18    47.76    58.67   100.75   106.63   120.23
eigval :      153.29   202.99   232.02   233.54   260.13   340.03
eigval :      402.61   418.39   512.78   765.65   773.92   791.44
eigval :      822.33   866.40   928.61   934.43   941.24   970.30
eigval :      998.65  1028.48  1072.50  1088.18  1097.61  1112.05
eigval :     1116.07  1130.75  1146.27  1178.49  1213.81  1227.66
eigval :     1257.14  1260.98  1277.10  1282.50  1286.29  1289.51
eigval :     1298.76  1324.24  1349.11  1367.14  1377.67  1380.28
eigval :     1416.22  1416.34  1491.34  1491.69  1496.15  1497.74
eigval :     1499.84  1500.80  1503.09  1504.92  1505.24  1507.95
eigval :     1508.15  2955.31  2956.31  2957.30  2961.08  2965.71
eigval :     2971.69  2973.79  2974.16  2976.64  2979.55  2981.72
eigval :     2983.72  2989.23  2995.89  3029.41  3030.31  3032.00
eigval :     3032.05  3037.56  3037.84
           -------------------------------------------------
          |                Property Printout                |
           -------------------------------------------------

    * Orbital Energies and Occupations

         #    Occupation            Energy/Eh            Energy/eV
      -------------------------------------------------------------
         1        2.0000           -0.6225753             -16.9411
       ...           ...                  ...                  ...
        16        2.0000           -0.4775287             -12.9942
        17        2.0000           -0.4702510             -12.7962
        18        2.0000           -0.4616994             -12.5635
        19        2.0000           -0.4517842             -12.2937
        20        2.0000           -0.4513898             -12.2829
        21        2.0000           -0.4368776             -11.8880
        22        2.0000           -0.4343383             -11.8189
        23        2.0000           -0.4327458             -11.7756
        24        2.0000           -0.4256749             -11.5832
        25        2.0000           -0.4212349             -11.4624
        26        2.0000           -0.4188716             -11.3981
        27        2.0000           -0.4152283             -11.2989
        28        2.0000           -0.4118709             -11.2076 (HOMO)
        29                          0.0542913               1.4773 (LUMO)
        30                          0.0749194               2.0387
        31                          0.1114982               3.0340
        32                          0.1151633               3.1338
        33                          0.1211277               3.2961
        34                          0.1259457               3.4272
        35                          0.1402472               3.8163
        36                          0.1474128               4.0113
        37                          0.1540799               4.1927
        38                          0.1578432               4.2951
        39                          0.1670187               4.5448
       ...                                ...                  ...
        56                          0.3241178               8.8197
      -------------------------------------------------------------
                  HL-Gap            0.4661622 Eh           12.6849 eV
             Fermi-level           -0.1787898 Eh           -4.8651 eV

     #   Z          covCN         q      C6AA      α(0)
     1   6 C        3.752    -0.102    22.509     6.766
     2   6 C        3.801    -0.053    21.521     6.605
     3   6 C        3.803    -0.059    21.635     6.622
     4   6 C        3.802    -0.059    21.630     6.621
     5   6 C        3.802    -0.058    21.613     6.619
     6   6 C        3.802    -0.058    21.620     6.620
     7   6 C        3.803    -0.059    21.642     6.623
     8   6 C        3.801    -0.053    21.525     6.606
     9   6 C        3.752    -0.102    22.506     6.765
    10   1 H        0.925     0.032     2.553     2.498
    11   1 H        0.925     0.033     2.544     2.494
    12   1 H        0.925     0.033     2.543     2.494
    13   1 H        0.924     0.028     2.610     2.527
    14   1 H        0.924     0.028     2.612     2.527
    15   1 H        0.924     0.029     2.605     2.524
    16   1 H        0.924     0.029     2.597     2.520
    17   1 H        0.924     0.029     2.603     2.523
    18   1 H        0.924     0.031     2.575     2.509
    19   1 H        0.924     0.029     2.596     2.519
    20   1 H        0.924     0.028     2.612     2.527
    21   1 H        0.924     0.028     2.617     2.530
    22   1 H        0.924     0.029     2.602     2.523
    23   1 H        0.924     0.032     2.558     2.501
    24   1 H        0.924     0.030     2.586     2.515
    25   1 H        0.924     0.028     2.616     2.529
    26   1 H        0.924     0.028     2.622     2.532
    27   1 H        0.925     0.032     2.556     2.500
    28   1 H        0.925     0.033     2.545     2.495
    29   1 H        0.925     0.033     2.544     2.494

 Mol. C6AA /au·bohr⁶  :       5484.531589
 Mol. C8AA /au·bohr⁸  :     113768.334263
 Mol. α(0) /au        :        110.128803


Wiberg/Mayer (AO) data.
largest (>0.10) Wiberg bond orders for each atom

 ---------------------------------------------------------------------------
     #   Z sym  total        # sym  WBO       # sym  WBO       # sym  WBO
 ---------------------------------------------------------------------------
     1   6 C    3.997 --     2 C    1.019    11 H    0.988    12 H    0.988
                            10 H    0.988
     2   6 C    3.998 --     1 C    1.019     3 C    1.008    13 H    0.979
                            14 H    0.979
     3   6 C    3.997 --     2 C    1.008     4 C    1.007    15 H    0.978
                            16 H    0.978
     4   6 C    3.998 --     5 C    1.008     3 C    1.007    17 H    0.977
                            18 H    0.975
     5   6 C    3.997 --     4 C    1.008     6 C    1.006    19 H    0.977
                            20 H    0.977
     6   6 C    3.997 --     7 C    1.008     5 C    1.006    22 H    0.977
                            21 H    0.977
     7   6 C    3.997 --     6 C    1.008     8 C    1.008    24 H    0.977
                            23 H    0.975
     8   6 C    3.998 --     9 C    1.019     7 C    1.008    25 H    0.979
                            26 H    0.979
     9   6 C    3.997 --     8 C    1.019    29 H    0.988    28 H    0.988
                            27 H    0.988
    10   1 H    0.999 --     1 C    0.988
    11   1 H    0.999 --     1 C    0.988
    12   1 H    0.999 --     1 C    0.988
    13   1 H    0.999 --     2 C    0.979
    14   1 H    0.999 --     2 C    0.979
    15   1 H    0.999 --     3 C    0.978
    16   1 H    0.999 --     3 C    0.978
    17   1 H    0.999 --     4 C    0.977
    18   1 H    0.999 --     4 C    0.975
    19   1 H    0.999 --     5 C    0.977
    20   1 H    0.999 --     5 C    0.977
    21   1 H    0.999 --     6 C    0.977
    22   1 H    0.999 --     6 C    0.977
    23   1 H    0.999 --     7 C    0.975
    24   1 H    0.999 --     7 C    0.977
    25   1 H    0.999 --     8 C    0.979
    26   1 H    0.999 --     8 C    0.979
    27   1 H    0.999 --     9 C    0.988
    28   1 H    0.999 --     9 C    0.988
    29   1 H    0.999 --     9 C    0.988
 ---------------------------------------------------------------------------

Topologies differ in total number of bonds
Writing topology from bond orders to xtbtopo.mol

molecular dipole:
                 x           y           z       tot (Debye)
 q only:       -0.004      -0.013       0.006
   full:       -0.004      -0.009       0.005       0.029
molecular quadrupole (traceless):
                xx          xy          yy          xz          yz          zz
 q only:        0.277      -0.098      -0.002      -0.087       0.018      -0.274
  q+dip:       -1.919       0.124       0.227       0.483      -0.114       1.692
   full:       -0.821       0.021       0.092       0.213      -0.053       0.729

           -------------------------------------------------
          |                Geometry Summary                 |
           -------------------------------------------------

      molecular mass/u    :      128.2554381
   center of mass at/Å    :       -0.0007587      -0.0024950      -0.0002916
  moments of inertia/u·Å² :        0.1232549E+03   0.1185689E+04   0.1263297E+04
rotational constants/cm⁻¹ :        0.1367705E+00   0.1421758E-01   0.1334416E-01

 * 28 selected distances

     #   Z          #   Z                                           value/Å
     1   6 C        2   6 C                                       1.5238048
     2   6 C        3   6 C                                       1.5270716
     3   6 C        4   6 C                                       1.5268946
     4   6 C        5   6 C                                       1.5273941
     5   6 C        6   6 C                                       1.5294943 (max)
     6   6 C        7   6 C                                       1.5272147
     7   6 C        8   6 C                                       1.5270049
     8   6 C        9   6 C                                       1.5240717
     1   6 C       10   1 H                                       1.0876515
     1   6 C       11   1 H                                       1.0878927
     1   6 C       12   1 H                                       1.0879477
     2   6 C       13   1 H                                       1.0924726
     2   6 C       14   1 H                                       1.0925211
     3   6 C       15   1 H                                       1.0926805
     3   6 C       16   1 H                                       1.0927268
     4   6 C       17   1 H                                       1.0927180
     4   6 C       18   1 H                                       1.0912286
     5   6 C       19   1 H                                       1.0925820
     5   6 C       20   1 H                                       1.0930092
     6   6 C       21   1 H                                       1.0931111
     6   6 C       22   1 H                                       1.0926666
     7   6 C       23   1 H                                       1.0912176
     7   6 C       24   1 H                                       1.0926970
     8   6 C       25   1 H                                       1.0925181
     8   6 C       26   1 H                                       1.0925038
     9   6 C       27   1 H                                       1.0876006 (min)
     9   6 C       28   1 H                                       1.0880142
     9   6 C       29   1 H                                       1.0879712

 * 2 distinct bonds (by element types)

   Z      Z             #   av. dist./Å        max./Å        min./Å
   1 H    6 C          20     1.0910865     1.0931111     1.0876006
   6 C    6 C           8     1.5266188     1.5294943     1.5238048

           -------------------------------------------------
          |               Frequency Printout                |
           -------------------------------------------------
 projected vibrational frequencies (cm⁻¹)
eigval :       -0.00    -0.00     0.00     0.00     0.00     0.00
eigval :       39.18    47.76    58.67   100.75   106.63   120.23
eigval :      153.29   202.99   232.02   233.54   260.13   340.03
eigval :      402.61   418.39   512.78   765.65   773.92   791.44
eigval :      822.33   866.40   928.61   934.43   941.24   970.30
eigval :      998.65  1028.48  1072.50  1088.18  1097.61  1112.05
eigval :     1116.07  1130.75  1146.27  1178.49  1213.81  1227.66
eigval :     1257.14  1260.98  1277.10  1282.50  1286.29  1289.51
eigval :     1298.76  1324.24  1349.11  1367.14  1377.67  1380.28
eigval :     1416.22  1416.34  1491.34  1491.69  1496.15  1497.74
eigval :     1499.84  1500.80  1503.09  1504.92  1505.24  1507.95
eigval :     1508.15  2955.31  2956.31  2957.30  2961.08  2965.71
eigval :     2971.69  2973.79  2974.16  2976.64  2979.55  2981.72
eigval :     2983.72  2989.23  2995.89  3029.41  3030.31  3032.00
eigval :     3032.05  3037.56  3037.84
 reduced masses (amu)
   1:  9.77   2:  9.36   3:  9.74   4:  9.79   5:  9.93   6:  9.69   7:  6.49   8:  7.16
   9:  7.24  10:  7.61  11:  8.04  12:  6.78  13:  8.45  14:  7.44  15:  2.56  16:  2.29
  17:  8.16  18:  8.97  19:  8.40  20:  9.37  21:  8.63  22:  1.94  23:  1.81  24:  2.40
  25:  2.78  26:  3.29  27:  3.69  28:  5.88  29:  6.09  30:  4.41  31:  5.66  32:  4.22
  33:  8.46  34:  9.01  35:  7.55  36:  8.07  37:  7.19  38:  7.73  39:  8.27  40:  7.03
  41:  5.53  42:  4.50  43:  3.57  44:  3.50  45:  2.97  46:  2.09  47:  2.65  48:  2.01
  49:  2.29  50:  3.72  51:  4.32  52:  4.71  53:  5.47  54:  5.53  55:  3.18  56:  3.18
  57:  1.90  58:  1.93  59:  1.95  60:  1.89  61:  1.98  62:  1.86  63:  1.80  64:  1.53
  65:  1.54  66:  1.66  67:  1.65  68:  1.89  69:  1.90  70:  1.94  71:  1.92  72:  1.91
  73:  1.71  74:  1.77  75:  1.56  76:  1.49  77:  1.49  78:  1.56  79:  1.90  80:  1.54
  81:  1.63  82:  1.96  83:  1.96  84:  1.91  85:  1.94  86:  1.26  87:  1.27
 IR intensities (km·mol⁻¹)
   1:  0.00   2:  0.00   3:  0.00   4:  0.00   5:  0.00   6:  0.00   7:  0.00   8:  0.00
   9:  0.01  10:  0.01  11:  0.01  12:  0.00  13:  0.14  14:  0.15  15:  0.01  16:  0.00
  17:  0.01  18:  0.03  19:  0.05  20:  0.16  21:  0.42  22: 14.13  23:  5.55  24:  1.47
  25:  0.38  26:  2.61  27:  0.67  28:  4.66  29:  2.67  30:  3.09  31:  1.00  32:  0.37
  33:  1.31  34:  0.75  35:  0.73  36:  0.72  37:  0.85  38:  0.63  39:  1.82  40:  0.55
  41:  0.13  42:  0.36  43:  0.40  44:  0.23  45:  0.01  46:  0.26  47:  0.35  48:  0.08
  49:  0.39  50:  0.15  51:  0.07  52:  1.87  53:  1.78  54:  0.39  55:  0.75  56:  0.98
  57:  0.62  58:  0.01  59:  0.04  60:  0.32  61:  0.12  62:  0.12  63:  0.02  64:  2.29
  65:  2.39  66:  1.02  67:  1.29  68:  5.27  69: 10.48  70:  7.35  71:  1.17  72:  1.61
  73: 32.03  74: 39.39  75:  5.70  76: 16.12  77:  3.37  78: 20.60  79:193.28  80:102.30
  81:145.71  82: 58.87  83: 59.00  84: 59.72  85: 72.28  86: 54.87  87:  9.44
 Raman intensities (amu)
   1:  0.00   2:  0.00   3:  0.00   4:  0.00   5:  0.00   6:  0.00   7:  0.00   8:  0.00
   9:  0.00  10:  0.00  11:  0.00  12:  0.00  13:  0.00  14:  0.00  15:  0.00  16:  0.00
  17:  0.00  18:  0.00  19:  0.00  20:  0.00  21:  0.00  22:  0.00  23:  0.00  24:  0.00
  25:  0.00  26:  0.00  27:  0.00  28:  0.00  29:  0.00  30:  0.00  31:  0.00  32:  0.00
  33:  0.00  34:  0.00  35:  0.00  36:  0.00  37:  0.00  38:  0.00  39:  0.00  40:  0.00
  41:  0.00  42:  0.00  43:  0.00  44:  0.00  45:  0.00  46:  0.00  47:  0.00  48:  0.00
  49:  0.00  50:  0.00  51:  0.00  52:  0.00  53:  0.00  54:  0.00  55:  0.00  56:  0.00
  57:  0.00  58:  0.00  59:  0.00  60:  0.00  61:  0.00  62:  0.00  63:  0.00  64:  0.00
  65:  0.00  66:  0.00  67:  0.00  68:  0.00  69:  0.00  70:  0.00  71:  0.00  72:  0.00
  73:  0.00  74:  0.00  75:  0.00  76:  0.00  77:  0.00  78:  0.00  79:  0.00  80:  0.00
  81:  0.00  82:  0.00  83:  0.00  84:  0.00  85:  0.00  86:  0.00  87:  0.00
 output can be read by thermo (or use thermo option).
 writing <g98.out> molden fake output.
 recommended (thermochemical) frequency scaling factor: 1.0
           -------------------------------------------------
          |             Thermodynamic Functions             |
           -------------------------------------------------

Molecule has no symmetry elements
It seems to be the C1 point group
c1  symmetry found (for desy threshold:  0.10E+00) used in thermo

          ...................................................
          :                      SETUP                      :
          :.................................................:
          :  # frequencies                          81      :
          :  # imaginary freq.                       0      :
          :  linear?                             false      :
          :  only rotor calc.                    false      :
          :  symmetry                               c1      :
          :  rotational number                       1      :
          :  scaling factor                  1.0000000      :
          :  rotor cutoff                   50.0000000 cm⁻¹ :
          :  imag. cutoff                  -20.0000000 cm⁻¹ :
          :.................................................:

    mode    ω/cm⁻¹     T·S(HO)/kcal·mol⁻¹    T·S(FR)/kcal·mol⁻¹   T·S(vib)
   ------------------------------------------------------------------------
       1     39.18    -1.58019 ( 27.39%)    -1.12862 ( 72.61%)    -1.25229
       2     47.76    -1.46338 ( 45.42%)    -1.07003 ( 54.58%)    -1.24869
       3     58.67    -1.34207 ( 65.47%)    -1.00907 ( 34.53%)    -1.22709
       4    100.75    -1.02557 ( 94.28%)    -0.84894 (  5.72%)    -1.01546
       5    106.63    -0.99264 ( 95.39%)    -0.83214 (  4.61%)    -0.98524
       6    120.23    -0.92327 ( 97.10%)    -0.79658 (  2.90%)    -0.91959
       7    153.29    -0.78442 ( 98.88%)    -0.72462 (  1.12%)    -0.78375
       8    202.99    -0.62785 ( 99.63%)    -0.64145 (  0.37%)    -0.62790
       9    232.02    -0.55554 ( 99.78%)    -0.60186 (  0.22%)    -0.55564
      10    233.54    -0.55205 ( 99.79%)    -0.59992 (  0.21%)    -0.55215
      11    260.13    -0.49520 ( 99.86%)    -0.56798 (  0.14%)    -0.49530
   ------------------------------------------------------------------------

   temp. (K)  partition function   enthalpy   heat capacity  entropy
                                   cal/mol     cal/K/mol   cal/K/mol   J/K/mol
 298.15  VIB  0.365E+05             6023.534     35.787     38.802
         ROT  0.104E+07              888.752      2.981     30.510
         INT  0.379E+11             6912.286     38.768     69.312
         TR   0.141E+28             1481.254      4.968     40.441
         TOT                        8393.5400    43.7358   109.7532   459.2076

       T/K    H(0)-H(T)+PV         H(T)/Eh          T*S/Eh         G(T)/Eh
   ------------------------------------------------------------------------
    298.15    0.133760E-01    0.285265E+00    0.521473E-01    0.233117E+00
   ------------------------------------------------------------------------

         :::::::::::::::::::::::::::::::::::::::::::::::::::::
         ::                  THERMODYNAMIC                  ::
         :::::::::::::::::::::::::::::::::::::::::::::::::::::
         :: total free energy         -29.253035814759 Eh   ::
         ::.................................................::
         :: total energy              -29.486153022909 Eh   ::
         :: zero point energy           0.271888560932 Eh   ::
         :: G(RRHO) w/o ZPVE           -0.038771352782 Eh   ::
         :: G(RRHO) contrib.            0.233117208150 Eh   ::
         :::::::::::::::::::::::::::::::::::::::::::::::::::::
 
 normal mode %tage of torsion character
   1:  0.00   2:  0.00   3:  0.00   4:  0.00   5:  0.00   6:  0.00   7:  0.58   8:  0.50
   9:  0.49  10:  0.62  11:  0.51  12:  0.64  13:  0.42  14:  0.55  15:  0.84  16:  0.89
  17:  0.45  18:  0.16  19:  0.13  20:  0.05  21:  0.08  22:  0.50  23:  0.52  24:  0.49
  25:  0.52  26:  0.51  27:  0.47  28:  0.20  29:  0.10  30:  0.33  31:  0.21  32:  0.34
  33:  0.15  34:  0.10  35:  0.08  36:  0.08  37:  0.08  38:  0.04  39:  0.12  40:  0.47
  41:  0.50  42:  0.42  43:  0.18  44:  0.22  45:  0.14  46:  0.18  47:  0.15  48:  0.13
  49:  0.11  50:  0.07  51:  0.08  52:  0.07  53:  0.06  54:  0.06  55:  0.00  56:  0.00
  57:  0.64  58:  0.62  59:  0.64  60:  0.66  61:  0.64  62:  0.61  63:  0.59  64:  0.92
  65:  0.93  66:  0.88  67:  0.81  68:  0.37  69:  0.34  70:  0.33  71:  0.22  72:  0.21
  73:  0.02  74:  0.02  75:  0.01  76:  0.01  77:  0.01  78:  0.02  79:  0.01  80:  0.02
  81:  0.03  82:  0.05  83:  0.08  84:  0.03  85:  0.04  86:  0.00  87:  0.00
 recommended # of modes for mode following           4

optimized geometry written to: xtbopt.xyz


           -------------------------------------------------
          | TOTAL ENERGY              -29.486153022909 Eh   |
          | TOTAL ENTHALPY            -29.200888504565 Eh   |
          | TOTAL FREE ENERGY         -29.253035814759 Eh   |
          | GRADIENT NORM               0.000422187491 Eh/α |
          | HOMO-LUMO GAP              12.684919065928 eV   |
           -------------------------------------------------

------------------------------------------------------------------------
 * finished run on 2024/04/23 at 12:10:23.704     
------------------------------------------------------------------------
 total:
 * wall-time:     0 d,  0 h,  0 min,  0.721 sec
 *  cpu-time:     0 d,  0 h,  0 min,  2.668 sec
 * ratio c/w:     3.700 speedup
 SCF:
 * wall-time:     0 d,  0 h,  0 min,  0.013 sec
 *  cpu-time:     0 d,  0 h,  0 min,  0.049 sec
 * ratio c/w:     3.710 speedup
 ANC optimizer:
 * wall-time:     0 d,  0 h,  0 min,  0.094 sec
 *  cpu-time:     0 d,  0 h,  0 min,  0.349 sec
 * ratio c/w:     3.700 speedup
 analytical hessian:
 * wall-time:     0 d,  0 h,  0 min,  0.513 sec
 *  cpu-time:     0 d,  0 h,  0 min,  2.031 sec
 * ratio c/w:     3.956 speedup

