29
 energy: -29.484228748624 gnorm: 0.027535324257 xtb: 6.6.1 (8d0f1dd)
C           -4.74264300000000       -0.64835500000000        0.15143700000000
C           -3.30233200000000       -0.78943900000000       -0.31544200000000
C           -2.39713000000000        0.32476000000000        0.21238200000000
C           -0.94995200000000        0.19376200000000       -0.26298900000000
C           -0.04115100000000        1.29683100000000        0.28089300000000
C            1.39799800000000        1.21602500000000       -0.23650800000000
C            2.14460400000000       -0.03720900000000        0.22243800000000
C            3.59541600000000       -0.07876200000000       -0.26011500000000
C            4.32565100000000       -1.33700500000000        0.18301000000000
H           -5.37875700000000       -1.45142400000000       -0.22913300000000
H           -5.17498700000000        0.29802700000000       -0.18062600000000
H           -4.80822600000000       -0.66652500000000        1.24146800000000
H           -3.25991200000000       -0.80161700000000       -1.41312700000000
H           -2.89745700000000       -1.76270800000000       -0.00601900000000
H           -2.79815400000000        1.30022800000000       -0.09025400000000
H           -2.42551300000000        0.33396000000000        1.30925400000000
H           -0.92011900000000        0.19908100000000       -1.35982100000000
H           -0.56143100000000       -0.78951700000000        0.02794800000000
H           -0.03942600000000        1.25995100000000        1.37745300000000
H           -0.47573000000000        2.27332900000000        0.02843500000000
H            1.96123700000000        2.10334700000000        0.08223400000000
H            1.39611600000000        1.25772100000000       -1.33288800000000
H            1.62145400000000       -0.93470400000000       -0.12839000000000
H            2.11821000000000       -0.10172000000000        1.31740600000000
H            3.61564500000000        0.00434900000000       -1.35536300000000
H            4.12430800000000        0.81367200000000        0.10125500000000
H            5.36125100000000       -1.35608300000000       -0.16547700000000
H            3.83445500000000       -2.23440400000000       -0.19948900000000
H            4.34405500000000       -1.42055500000000        1.27178200000000
29
 energy: -29.485850559260 gnorm: 0.012209364435 xtb: 6.6.1 (8d0f1dd)
C           -4.73403487730330       -0.64227308820837        0.15308305199966
C           -3.29473579833208       -0.78667448338559       -0.31664288980947
C           -2.39536291571223        0.32926471215249        0.21384431033828
C           -0.95146843084443        0.18864716580702       -0.26463227373355
C           -0.04127099650949        1.28729065819914        0.28304693272605
C            1.39462416138037        1.20693880608402       -0.23912679297101
C            2.14207862205818       -0.04235685904131        0.22457750426381
C            3.59053083568331       -0.07272657628721       -0.26078104303695
C            4.31729397712182       -1.33255610517111        0.18456732924985
H           -5.35552506168564       -1.44941511809770       -0.23409411324580
H           -5.16025438196683        0.30194212409570       -0.18545872334229
H           -4.79204469473928       -0.66596340536200        1.24119232018319
H           -3.26507074732637       -0.78511289677922       -1.41189128019940
H           -2.89928906455060       -1.75532430392554        0.00883945555247
H           -2.79375375212136        1.29846128436551       -0.10494988690444
H           -2.41768124271371        0.32147625172803        1.30890993594275
H           -0.92756025006037        0.21148887095576       -1.35949332906298
H           -0.57058170974914       -0.78955229385596        0.04293204957754
H           -0.03292121737815        1.24036665249200        1.37723577807693
H           -0.46390140807291        2.26152222878088        0.01264071706632
H            1.94629866452972        2.09207580987066        0.09739285941617
H            1.38543209715076        1.23926358045134       -1.33389628191066
H            1.62809930001998       -0.93504832858795       -0.14321964770771
H            2.12503834228286       -0.09028222723334        1.31867358480379
H            3.60644145041651       -0.00819719510761       -1.35444668709158
H            4.11955032822867        0.80960296402954        0.11615485591235
H            5.34767089256568       -1.33723606815361       -0.16995297062647
H            3.82443387052163       -2.22353170529149       -0.20453286768525
H            4.33544400710640       -1.40707445452408        1.27178210221840
29
 energy: -29.486089152758 gnorm: 0.002086623843 xtb: 6.6.1 (8d0f1dd)
C           -4.73015042459129       -0.63828040662956        0.15411087983491
C           -3.28975131429511       -0.78463902110693       -0.31776448070389
C           -2.39351425492195        0.33190246663852        0.21428202769783
C           -0.95151653870168        0.18409282316444       -0.26566730960063
C           -0.04249212898815        1.28187089921370        0.28416189602985
C            1.39218846500935        1.20137587371920       -0.24009761323507
C            2.13981032034983       -0.04643944077869        0.22522213694649
C            3.58709370295542       -0.06836492299868       -0.26120142260487
C            4.31463098599009       -1.32964588752440        0.18541490735066
H           -5.34460926557802       -1.44706495060397       -0.23599002949016
H           -5.15116657209512        0.30563282471608       -0.18620068865089
H           -4.78211681549829       -0.66320742722985        1.24077325910515
H           -3.26475753043212       -0.77667813662225       -1.41043447859816
H           -2.89772143054022       -1.74951036597842        0.01406958483922
H           -2.78948149316663        1.29744279217799       -0.11107477626650
H           -2.41343072791020        0.31785934725873        1.30713360429028
H           -0.93051327274846        0.21504608363568       -1.35821680551353
H           -0.57733210718488       -0.79227640955360        0.04763709818007
H           -0.03029761270200        1.22800509393017        1.37585037086075
H           -0.45949084488387        2.25435977848080        0.00777302870029
H            1.93788203013785        2.08526030850670        0.10217676384490
H            1.37845628614938        1.22730972597761       -1.33286237648826
H            1.63316377543406       -0.93812540926809       -0.14826045226749
H            2.12697306806200       -0.08675673045804        1.31749358105305
H            3.60054138600732       -0.01082844904261       -1.35259277953614
H            4.11364554870925        0.80929008489283        0.12229337290472
H            5.34233799313467       -1.32724750343832       -0.17159392295195
H            3.81922873819175       -2.21610667634448       -0.20596748303803
H            4.32987003410706       -1.39926036473456        1.27128610730741
29
 energy: -29.486101536818 gnorm: 0.000606115900 xtb: 6.6.1 (8d0f1dd)
C           -4.72983496086168       -0.63698242632943        0.15442999584789
C           -3.28902621698274       -0.78402621087451       -0.31832291180532
C           -2.39320474053115        0.33251950208270        0.21398706920003
C           -0.95152137671681        0.18266316837640       -0.26614576633453
C           -0.04283299292745        1.27979433651845        0.28491526975826
C            1.39151248657050        1.19953896186174       -0.24071996815772
C            2.13927795676836       -0.04776759961144        0.22559314624472
C            3.58645506397954       -0.06680918677871       -0.26119834733674
C            4.31519652557965       -1.32831523736092        0.18554966224152
H           -5.34439392727814       -1.44536272953443       -0.23549687850129
H           -5.14930286301396        0.30745454861308       -0.18556724930838
H           -4.77998180077304       -0.66156125006294        1.24094491393151
H           -3.26401038158823       -0.77550071273670       -1.41053384922416
H           -2.89686667130199       -1.74832324353738        0.01351465479820
H           -2.78782992866161        1.29797782624735       -0.11181249504938
H           -2.41293707293811        0.31907046826319        1.30644932497518
H           -0.93035504042530        0.21381075342508       -1.35825966365232
H           -0.57914912860524       -0.79400417238313        0.04698407391841
H           -0.03015492715599        1.22428271404713        1.37612958993411
H           -0.46013766914365        2.25186935420605        0.00956177738075
H            1.93715233067584        2.08327746473125        0.10042756915206
H            1.37654195415637        1.22394317247393       -1.33313760906200
H            1.63446010970637       -0.94007378450250       -0.14784799004863
H            2.12623399906857       -0.08798293228639        1.31747310640147
H            3.59964874558035       -0.00890275054741       -1.35213126797077
H            4.11135716012922        0.81096544480906        0.12294293213587
H            5.34265301034405       -1.32517957633841       -0.17128039089852
H            3.81928105628971       -2.21414709090296       -0.20594010338150
H            4.32924930005655       -1.39721281186816        1.27124540481126
29
 energy: -29.486112327683 gnorm: 0.001800237206 xtb: 6.6.1 (8d0f1dd)
C           -4.72994875763853       -0.63368434175862        0.15523559261261
C           -3.28915712719495       -0.78250985614923       -0.31960174610236
C           -2.39303690297644        0.33332883245967        0.21254340093509
C           -0.95168780196011        0.17936329782647       -0.26682658342631
C           -0.04333367516051        1.27487745916521        0.28665161914457
C            1.38985913201022        1.19525699425216       -0.24208727800405
C            2.13879708324858       -0.05056125434097        0.22580951197766
C            3.58606730559068       -0.06379587957604       -0.26055579345722
C            4.31784569364966       -1.32472276419946        0.18593473144671
H           -5.34646431187268       -1.44058675564635       -0.23361184257519
H           -5.14660539707594        0.31213549741606       -0.18375991358680
H           -4.77660265324470       -0.65762853190932        1.24172856297733
H           -3.26403058329540       -0.77349000712334       -1.41145074120005
H           -2.89656890203786       -1.74648640057578        0.01147754423559
H           -2.78464870987505        1.29937958425634       -0.11406591161670
H           -2.41283385293245        0.32209393648442        1.30473522383428
H           -0.92947853725927        0.21051826066686       -1.35858302212565
H           -0.58264485410367       -0.79864031167032        0.04525578904220
H           -0.02918514639177        1.21537183342136        1.37730988251117
H           -0.46224574983377        2.24696025152111        0.01556580984195
H            1.93650248087185        2.07942642304711        0.09479538906335
H            1.37186126651035        1.21620087772999       -1.33420590830290
H            1.63725568584070       -0.94472168987420       -0.14706641481704
H            2.12456209342749       -0.09113588712930        1.31735974155050
H            3.59908775785885       -0.00397615227115       -1.35103375579646
H            4.10712955669947        0.81530104913498        0.12471324520649
H            5.34519769506000       -1.32026509977938       -0.17012199588409
H            3.82190397505173       -2.21014251449187       -0.20589976698608
H            4.32988323703354       -1.39285085088642        1.27150862950142
29
 energy: -29.486120297875 gnorm: 0.001062007814 xtb: 6.6.1 (8d0f1dd)
C           -4.73080507228446       -0.63134035911449        0.15584460580087
C           -3.29094420987201       -0.78164376337173       -0.32031084001392
C           -2.39352827722886        0.33318573346785        0.21124377624424
C           -0.95212029829337        0.17759027264104       -0.26692544612138
C           -0.04312718970184        1.27178293979737        0.28775232926825
C            1.38893450777703        1.19279378852778       -0.24309119436551
C            2.13935712933906       -0.05177643974422        0.22542727601252
C            3.58689797490727       -0.06263333712278       -0.25977276302385
C            4.32032062760105       -1.32229169036497        0.18637836011500
H           -5.34913779025593       -1.43726280507575       -0.23226968485541
H           -5.14674327866625        0.31512261547372       -0.18249168510585
H           -4.77637207408123       -0.65541219877238        1.24245732077201
H           -3.26649719639842       -0.77266394212883       -1.41237498317886
H           -2.89873454137155       -1.74618852508484        0.01021881550962
H           -2.78371374709283        1.29972442832951       -0.11627839497066
H           -2.41392969376006        0.32308007580173        1.30363278995956
H           -0.92886117918344        0.20900290679692       -1.35886398537841
H           -0.58420028740066       -0.80114016910168        0.04490602413313
H           -0.02764761403206        1.20997182060952        1.37843527841759
H           -0.46274603539342        2.24460898345296        0.01960017191435
H            1.93605366048663        2.07787578152816        0.09121535432198
H            1.36909503707917        1.21202674011730       -1.33536069098967
H            1.63915253838924       -0.94684593937334       -0.14763068990679
H            2.12423907103576       -0.09246902470925        1.31716569320732
H            3.60050826941543       -0.00172034118296       -1.35037422582041
H            4.10610202088835        0.81740783624738        0.12638909225935
H            5.34785985124454       -1.31651620585473       -0.16926329369132
H            3.82583991147519       -2.20841888852304       -0.20590525505777
H            4.33222788537768       -1.39083429326627        1.27200024454401
29
 energy: -29.486138731367 gnorm: 0.001113189341 xtb: 6.6.1 (8d0f1dd)
C           -4.73590435180073       -0.62137576622779        0.15849803041717
C           -3.29954360179540       -0.77832209145988       -0.32314672366218
C           -2.39630164546008        0.33246549927261        0.20626325946243
C           -0.95449758925869        0.17001352688395       -0.26715252749443
C           -0.04239173785556        1.25934254246760        0.29180994519211
C            1.38572784168577        1.18306473729249       -0.24723061304049
C            2.14258856210407       -0.05664270197955        0.22328127104142
C            3.59162390750394       -0.05801998211252       -0.25672094211738
C            4.33187303724847       -1.31270714926577        0.18850894396226
H           -5.36078306848613       -1.42361571864373       -0.22743012057788
H           -5.14904291578197        0.32750575170162       -0.17714864402633
H           -4.77766250486963       -0.64631345931915        1.24544261423767
H           -3.27889916839634       -0.76913664929551       -1.41568737380959
H           -2.91027200805107       -1.74517985687235        0.00543654591522
H           -2.78110977202206        1.30030282627842       -0.12511916633937
H           -2.41952750057450        0.32567244384094        1.29899782829610
H           -0.92723594359954        0.20327285427973       -1.35934202598009
H           -0.59091459510196       -0.81090816542156        0.04429602420113
H           -0.02100974674700        1.18841873191374        1.38222595634654
H           -0.46346940828073        2.23505018446028        0.03453289661621
H            1.93294421256195        2.07190428797985        0.07833527223284
H            1.35886708666932        1.19622441046467       -1.33976046934879
H            1.64811525750572       -0.95476720640100       -0.15115912424422
H            2.12427075936746       -0.09712753717553        1.31534778371512
H            3.60840734984288        0.00604918139117       -1.34748123915838
H            4.10369649161552        0.82504841332735        0.13329172108210
H            5.36014674637030       -1.29992229166956       -0.16557407400513
H            3.84441376720070       -2.20209666640716       -0.20575456115031
H            4.34337053840532       -1.38318414930334        1.27419351223624
29
 energy: -29.486144197530 gnorm: 0.000947427631 xtb: 6.6.1 (8d0f1dd)
C           -4.73876250727653       -0.61860874246972        0.15928629902746
C           -3.30301163382766       -0.77744898929170       -0.32376646767546
C           -2.39766074644050        0.33205313578120        0.20534332537608
C           -0.95568746739835        0.16794594843458       -0.26732251611878
C           -0.04225756144452        1.25606102432109        0.29243969603189
C            1.38548780360194        1.18073001575286       -0.24834900758130
C            2.14426078101591       -0.05786400558676        0.22241834433045
C            3.59387587594928       -0.05695541780853       -0.25616495760217
C            4.33636138405320       -1.31031167775722        0.18933904022274
H           -5.36512436753256       -1.41982453728001       -0.22643483281248
H           -5.15106446322124        0.33092699230229       -0.17555757630188
H           -4.77981676174987       -0.64402625312509        1.24625453259723
H           -3.28361065624436       -0.76805366790911       -1.41630051281779
H           -2.91506786612603       -1.74499409741366        0.00424076495347
H           -2.78108921191353        1.30013028469249       -0.12674523720545
H           -2.42163764045742        0.32574248000829        1.29803054037069
H           -0.92768937297254        0.20140947829332       -1.35943886959373
H           -0.59319536176813       -0.81327854178955        0.04426990620890
H           -0.01954587133725        1.18350696487135        1.38263398808473
H           -0.46324350396501        2.23223653311316        0.03720539689784
H            1.93185660237111        2.07039798005257        0.07620407606960
H            1.35751260352056        1.19337480303940       -1.34079323967301
H            1.65146042854165       -0.95655230623615       -0.15273541276928
H            2.12513523969424       -0.09860574177928        1.31442798519796
H            3.61203276722610        0.00752774905762       -1.34686995515212
H            4.10413741826111        0.82667930115453        0.13483996521334
H            5.36488360969980       -1.29494602891593       -0.16400964326472
H            3.85149294908270       -2.20076106594493       -0.20570118284265
H            4.34744753065793       -1.38147561756712        1.27500955082846
29
 energy: -29.486149609269 gnorm: 0.000283123165 xtb: 6.6.1 (8d0f1dd)
C           -4.74194096654693       -0.61663042629126        0.15989581225890
C           -3.30615483549178       -0.77672432331811       -0.32380061705305
C           -2.39909105853457        0.33177784848140        0.20537417074568
C           -0.95700845616470        0.16616588704294       -0.26754279565105
C           -0.04252110142018        1.25404172063372        0.29177497005252
C            1.38594310380358        1.17927920859757       -0.24870822532871
C            2.14603851999091       -0.05899747340358        0.22136434039636
C            3.59630451892023       -0.05630032814345       -0.25603116863616
C            4.34056402565426       -1.30884549155717        0.19012142352738
H           -5.36873797178739       -1.41721514312579       -0.22636312500780
H           -5.15360268515196        0.33333429548363       -0.17432296057201
H           -4.78292629638792       -0.64279392343052        1.24679414929509
H           -3.28770069832882       -0.76675812814710       -1.41618168883006
H           -2.91963820704562       -1.74482316027540        0.00372513561479
H           -2.78171747726235        1.30011118243992       -0.12645239388383
H           -2.42307020559652        0.32488310157779        1.29790599547065
H           -0.92938883168628        0.19973241165750       -1.35949560313474
H           -0.59520847500825       -0.81512462476120        0.04423133049096
H           -0.01941750205046        1.18142470468529        1.38176622810602
H           -0.46274327129813        2.23031463616383        0.03639312920309
H            1.93082320426709        2.06921638430324        0.07714947006055
H            1.35842021902585        1.19296900717478       -1.34098726377955
H            1.65444247790450       -0.95781904893022       -0.15466235673272
H            2.12659946984180       -0.10015172954922        1.31319446026323
H            3.61562105115225        0.00764248595924       -1.34659632024579
H            4.10541335042974        0.82765141652389        0.13537571928785
H            5.36940867386078       -1.29087027166129       -0.16209614123457
H            3.85814246327922       -2.20015245056091       -0.20580287391916
H            4.35062696163167       -1.38032176756952        1.27573119923617
29
 energy: -29.486153022895 gnorm: 0.000422365948 xtb: 6.6.1 (8d0f1dd)
C           -4.74473281722370       -0.61448898647113        0.16048558708592
C           -3.30894731029280       -0.77576466381471       -0.32375686321057
C           -2.40008635847187        0.33126350458353        0.20577831070674
C           -0.95821189514502        0.16436344385520       -0.26808788116687
C           -0.04274293708222        1.25169434385465        0.29098306922509
C            1.38630214007680        1.17750748725955       -0.24909007733376
C            2.14741165487460       -0.06045553791562        0.22053130800793
C            3.59810850703829       -0.05564077106460       -0.25612277572515
C            4.34451665798073       -1.30694553339999        0.19098503271466
H           -5.37212103287630       -1.41428670601982       -0.22641660773692
H           -5.15553119170889        0.33606487661007       -0.17298449790350
H           -4.78561438946935       -0.64142583196770        1.24733109381536
H           -3.29105549168529       -0.76517325473749       -1.41603151870741
H           -2.92365351482551       -1.74441394842663        0.00315209287354
H           -2.78162244303017        1.30010889819914       -0.12546060160746
H           -2.42372178212564        0.32390341458043        1.29822456153354
H           -0.93122777859868        0.19755858664738       -1.35996805846300
H           -0.59720477328045       -0.81702889539853        0.04387774920930
H           -0.01995705881586        1.17964023449267        1.38094829026653
H           -0.46244303355679        2.22787276864704        0.03486531418416
H            1.93001752591115        2.06747354261263        0.07836317555381
H            1.35960558022802        1.19247873005240       -1.34132779494040
H            1.65723314122177       -0.95946032946577       -0.15665694662145
H            2.12753202446885       -0.10262466679312        1.31223327518996
H            3.61847516016245        0.00807913379332       -1.34659084749229
H            4.10559617666903        0.82896123389138        0.13566795118169
H            5.37380897989648       -1.28642454395656       -0.15974424650978
H            3.86465756823271       -2.19909133220317       -0.20598567134354
H            4.35308869142769       -1.37872919744459        1.27655157721388
