 Entering Gaussian System
 *********************************************
 Gaussian 98:
 frequency output generated by the xtb code
 *********************************************
                         Standard orientation:
 --------------------------------------------------------------------
  Center     Atomic     Atomic              Coordinates (Angstroms)
  Number     Number      Type              X           Y           Z
 --------------------------------------------------------------------
    1          6             0       -3.114168   -0.719151   -0.486767
    2          6             0       -1.863249   -0.392524    0.320242
    3          6             0       -1.132225    0.823131   -0.244907
    4          6             0        0.052036    1.277059    0.610188
    5          6             0        1.176160    0.250221    0.757818
    6          6             0        1.839641   -0.123421   -0.565793
    7          6             0        3.045547   -1.030492   -0.351899
    8          1             0       -2.854865   -0.932252   -1.521825
    9          1             0       -3.621017   -1.588731   -0.074388
   10          1             0       -3.807326    0.119497   -0.475080
   11          1             0       -2.142085   -0.194546    1.358001
   12          1             0       -1.200447   -1.259226    0.312330
   13          1             0       -0.793498    0.603166   -1.258802
   14          1             0       -1.839294    1.654325   -0.313308
   15          1             0       -0.315370    1.532946    1.607532
   16          1             0        0.467039    2.187605    0.169901
   17          1             0        0.793024   -0.651527    1.238617
   18          1             0        1.935712    0.672633    1.421254
   19          1             0        1.121303   -0.635161   -1.208139
   20          1             0        2.157109    0.787557   -1.078848
   21          1             0        3.788072   -0.539014    0.273402
   22          1             0        3.510227   -1.281918   -1.302658
   23          1             0        2.745475   -1.954517    0.138074
 --------------------------------------------------------------------
     1 basis functions        1 primitive gaussians
     1 alpha electrons        1 beta electrons
 
 Harmonic frequencies (cm**-1), IR intensities (KM/Mole),
 Raman scattering activities (A**4/amu), Raman depolarization ratios,
 reduced masses (AMU), force constants (mDyne/A) and normal coordinates:
                      1                      2                      3
                        a                      a                      a 
 Frequencies --    46.4495                69.0191                73.4139
 Red. masses --    99.0000                99.0000                99.0000
 Frc consts  --    99.0000                99.0000                99.0000
 IR Inten    --    99.0000                99.0000                99.0000
 Raman Activ --     0.0000                 0.0000                 0.0000
 Depolar     --     0.0000                 0.0000                 0.0000
 Atom AN      X      Y      Z        X      Y      Z        X      Y      Z
   1   6     0.32  -0.18  -0.12    -0.14   0.04   0.24    -0.21   0.26   0.15
   2   6     0.30  -0.09  -0.12     0.20  -0.22  -0.19     0.15  -0.17  -0.24
   3   6     0.00   0.19   0.12    -0.03  -0.03  -0.09     0.02  -0.01  -0.07
   4   6     0.01   0.21   0.10    -0.05   0.05  -0.10    -0.00  -0.04  -0.02
   5   6     0.02   0.21   0.08    -0.02   0.09  -0.04    -0.03  -0.05   0.03
   6   6    -0.31  -0.13   0.01     0.23   0.29   0.04    -0.15  -0.27   0.03
   7   6    -0.33  -0.18  -0.05    -0.17  -0.22   0.11     0.22   0.25   0.11
   8   1     0.09   0.04  -0.06    -0.17   0.14   0.01    -0.20   0.22  -0.02
   9   1     0.16  -0.11  -0.09     0.03  -0.04   0.03    -0.02   0.02  -0.01
  10   1     0.04  -0.10   0.03    -0.05   0.00   0.26    -0.05   0.08   0.25
  11   1     0.09  -0.11  -0.02     0.18  -0.16  -0.00     0.17  -0.16  -0.02
  12   1     0.14   0.02  -0.11     0.06  -0.06  -0.22     0.02  -0.06  -0.24
  13   1    -0.02   0.15   0.01    -0.02   0.05  -0.04     0.00   0.05  -0.03
  14   1    -0.05   0.02   0.11    -0.05  -0.04   0.02    -0.02  -0.02   0.03
  15   1     0.01   0.06   0.03    -0.02   0.02  -0.03    -0.01  -0.01  -0.01
  16   1    -0.00   0.06   0.03    -0.02   0.02  -0.04     0.01  -0.01  -0.00
  17   1     0.03   0.10   0.11    -0.02   0.00  -0.07    -0.00   0.01   0.06
  18   1     0.05   0.10  -0.06    -0.05   0.01   0.04     0.01   0.01  -0.03
  19   1    -0.14  -0.06   0.08     0.07   0.22  -0.10    -0.03  -0.21   0.10
  20   1    -0.10  -0.08  -0.08     0.21   0.10   0.12    -0.17  -0.10  -0.10
  21   1    -0.04  -0.03  -0.10    -0.06  -0.21   0.17     0.06   0.23  -0.09
  22   1    -0.17  -0.13  -0.03     0.03  -0.00   0.05     0.02   0.00   0.03
  23   1    -0.09  -0.01   0.07    -0.20  -0.09  -0.11     0.20   0.10   0.17
                      4                      5                      6
                        a                      a                      a 
 Frequencies --   234.6953               184.6935               242.6021
 Red. masses --    99.0000                99.0000                99.0000
 Frc consts  --    99.0000                99.0000                99.0000
 IR Inten    --    99.0000                99.0000                99.0000
 Raman Activ --     0.0000                 0.0000                 0.0000
 Depolar     --     0.0000                 0.0000                 0.0000
 Atom AN      X      Y      Z        X      Y      Z        X      Y      Z
   1   6     0.01   0.06  -0.07     0.13  -0.17   0.06     0.04  -0.10   0.08
   2   6    -0.11   0.02   0.14     0.05   0.17   0.04    -0.01   0.20   0.03
   3   6     0.07  -0.16  -0.03    -0.21   0.36   0.12     0.14  -0.01  -0.23
   4   6     0.02   0.03  -0.06     0.07   0.05  -0.12    -0.00  -0.03  -0.01
   5   6     0.09   0.13   0.10    -0.24  -0.30  -0.20    -0.14  -0.17   0.14
   6   6    -0.11  -0.12   0.07     0.03  -0.14  -0.10     0.02   0.14   0.13
   7   6     0.02   0.01  -0.09     0.14   0.05   0.16    -0.05   0.01  -0.13
   8   1     0.02   0.36  -0.09     0.04   0.06  -0.00    -0.01   0.24  -0.04
   9   1     0.16  -0.19  -0.26     0.17  -0.15  -0.04     0.23  -0.22  -0.12
  10   1    -0.14  -0.10   0.23    -0.08  -0.15   0.10    -0.17  -0.18   0.25
  11   1    -0.08   0.06   0.02     0.01   0.01   0.02    -0.02   0.14  -0.01
  12   1    -0.05  -0.01   0.11     0.07   0.10  -0.02    -0.01   0.05   0.09
  13   1     0.05  -0.13   0.02    -0.15   0.18  -0.01     0.10  -0.09  -0.03
  14   1     0.04  -0.04  -0.10    -0.07   0.11   0.16     0.07   0.01  -0.17
  15   1    -0.00   0.05  -0.03     0.09   0.06  -0.02    -0.05   0.00  -0.03
  16   1    -0.01  -0.01  -0.06     0.09  -0.03  -0.07     0.05  -0.02   0.02
  17   1     0.06   0.07   0.11    -0.16  -0.09  -0.14    -0.10  -0.07  -0.05
  18   1     0.05   0.11  -0.04    -0.08  -0.19   0.02    -0.07  -0.12   0.12
  19   1    -0.05  -0.08   0.08     0.07  -0.05  -0.09     0.01   0.10  -0.01
  20   1    -0.08  -0.05  -0.04     0.01  -0.02   0.01     0.03   0.08   0.11
  21   1    -0.14  -0.11   0.24    -0.07   0.02   0.18     0.16   0.07  -0.29
  22   1     0.19   0.32  -0.02     0.18   0.11   0.09    -0.24  -0.21  -0.09
  23   1     0.00  -0.16  -0.34     0.04  -0.04  -0.05     0.02   0.12   0.20
                      7                      8                      9
                        a                      a                      a 
 Frequencies --   208.8742               293.4136               302.6948
 Red. masses --    99.0000                99.0000                99.0000
 Frc consts  --    99.0000                99.0000                99.0000
 IR Inten    --    99.0000                99.0000                99.0000
 Raman Activ --     0.0000                 0.0000                 0.0000
 Depolar     --     0.0000                 0.0000                 0.0000
 Atom AN      X      Y      Z        X      Y      Z        X      Y      Z
   1   6    -0.09   0.05  -0.18     0.08   0.14  -0.12     0.26   0.25  -0.02
   2   6    -0.24  -0.09   0.13     0.01  -0.22   0.14     0.17  -0.15   0.24
   3   6    -0.21  -0.03   0.28    -0.14  -0.12   0.18     0.17  -0.26   0.04
   4   6    -0.00  -0.02  -0.01     0.14   0.16  -0.34    -0.00   0.01   0.01
   5   6     0.21   0.18  -0.21    -0.14  -0.06   0.20    -0.18  -0.12  -0.22
   6   6     0.24   0.02  -0.16     0.02   0.04   0.25    -0.17   0.10  -0.27
   7   6     0.09  -0.11   0.16     0.06   0.00  -0.18    -0.25   0.16   0.22
   8   1     0.02   0.25  -0.09     0.08   0.03  -0.02     0.13   0.14  -0.01
   9   1     0.05  -0.12  -0.25    -0.09   0.09  -0.09    -0.01   0.07  -0.11
  10   1    -0.11  -0.05   0.10     0.10   0.11  -0.08     0.13   0.12   0.02
  11   1    -0.12  -0.07   0.03    -0.01  -0.12   0.05     0.03  -0.01   0.06
  12   1    -0.06  -0.02   0.03    -0.01  -0.07  -0.01     0.00  -0.08   0.09
  13   1    -0.12   0.02   0.05    -0.14  -0.01   0.01     0.09  -0.15   0.04
  14   1    -0.06  -0.00   0.14    -0.07  -0.05   0.12     0.02  -0.11  -0.09
  15   1     0.07  -0.02   0.03     0.11   0.31  -0.14     0.00  -0.01   0.01
  16   1    -0.07   0.01  -0.03     0.09  -0.09  -0.33    -0.01   0.00   0.00
  17   1     0.12   0.04  -0.02    -0.14   0.00   0.02    -0.10  -0.06  -0.14
  18   1     0.06   0.10  -0.09    -0.07  -0.06   0.12    -0.03  -0.13  -0.03
  19   1     0.06   0.01  -0.04    -0.00   0.06   0.04    -0.01   0.02  -0.11
  20   1     0.12  -0.03  -0.08     0.00   0.04   0.12    -0.03   0.04  -0.05
  21   1     0.11   0.04  -0.11     0.10  -0.01  -0.14    -0.13   0.10   0.09
  22   1    -0.06  -0.27   0.07    -0.10   0.01  -0.11     0.02  -0.04   0.13
  23   1    -0.01   0.09   0.26     0.07  -0.01  -0.03    -0.12   0.09   0.12
                     10                     11                     12
                        a                      a                      a 
 Frequencies --   429.7906               504.5304               757.4607
 Red. masses --    99.0000                99.0000                99.0000
 Frc consts  --    99.0000                99.0000                99.0000
 IR Inten    --    99.0000                99.0000                99.0000
 Raman Activ --     0.0000                 0.0000                 0.0000
 Depolar     --     0.0000                 0.0000                 0.0000
 Atom AN      X      Y      Z        X      Y      Z        X      Y      Z
   1   6     0.28   0.20   0.06     0.18   0.12   0.05     0.03   0.02   0.01
   2   6     0.16   0.01   0.17     0.08   0.10   0.06    -0.03   0.12  -0.00
   3   6    -0.22   0.02  -0.13    -0.23   0.05  -0.19    -0.09   0.08   0.12
   4   6    -0.44   0.00   0.04    -0.02  -0.52  -0.25    -0.15  -0.05   0.12
   5   6    -0.22   0.10  -0.09     0.23  -0.13   0.15    -0.10  -0.13   0.01
   6   6     0.16  -0.15   0.09    -0.07   0.12   0.04    -0.04  -0.07  -0.09
   7   6     0.26  -0.19  -0.13    -0.17   0.12   0.06     0.03  -0.03  -0.01
   8   1     0.13   0.09   0.02     0.08   0.06   0.02     0.08  -0.03   0.03
   9   1     0.00   0.07  -0.05     0.02   0.03  -0.03     0.04  -0.01   0.01
  10   1     0.13   0.10   0.01     0.07   0.05   0.01    -0.04  -0.03  -0.07
  11   1     0.06   0.02   0.05     0.05   0.06   0.02     0.11  -0.20   0.07
  12   1     0.07   0.02   0.04     0.06   0.06   0.03     0.08   0.10  -0.26
  13   1    -0.04  -0.02  -0.03    -0.24   0.10  -0.13     0.20  -0.22   0.16
  14   1    -0.11  -0.04  -0.07    -0.03   0.06   0.16     0.05   0.05  -0.31
  15   1    -0.18  -0.18   0.04    -0.05  -0.13  -0.09     0.08   0.24   0.01
  16   1    -0.17   0.09   0.17     0.04  -0.15  -0.04     0.07  -0.16  -0.18
  17   1    -0.04   0.03  -0.00     0.24  -0.05   0.15     0.21   0.00   0.26
  18   1    -0.11   0.08  -0.01     0.04   0.16  -0.05     0.06   0.21  -0.24
  19   1     0.07  -0.05   0.01    -0.06   0.07   0.03     0.08   0.13  -0.24
  20   1     0.06  -0.05   0.01    -0.04   0.06   0.04     0.12   0.06   0.20
  21   1     0.12  -0.08  -0.07    -0.06   0.04   0.03    -0.03   0.08  -0.02
  22   1    -0.00  -0.00  -0.09    -0.02   0.00   0.04     0.04  -0.00   0.01
  23   1     0.12  -0.08  -0.06    -0.08   0.05   0.04     0.08  -0.01   0.03
                     13                     14                     15
                        a                      a                      a 
 Frequencies --   827.8121               789.4730              1505.7701
 Red. masses --    99.0000                99.0000                99.0000
 Frc consts  --    99.0000                99.0000                99.0000
 IR Inten    --    99.0000                99.0000                99.0000
 Raman Activ --     0.0000                 0.0000                 0.0000
 Depolar     --     0.0000                 0.0000                 0.0000
 Atom AN      X      Y      Z        X      Y      Z        X      Y      Z
   1   6     0.10   0.01  -0.02     0.00   0.02   0.03     0.07  -0.08  -0.07
   2   6     0.11   0.01  -0.18    -0.10   0.10   0.11     0.02  -0.02  -0.01
   3   6    -0.07  -0.01   0.09    -0.13   0.06  -0.01     0.00  -0.00   0.01
   4   6    -0.22  -0.07   0.17    -0.00  -0.06  -0.03     0.00   0.00   0.00
   5   6    -0.07  -0.06   0.07     0.13   0.02   0.05    -0.00   0.01  -0.02
   6   6     0.11   0.13  -0.12     0.11   0.14   0.01    -0.02  -0.03  -0.00
   7   6     0.10   0.00  -0.02     0.00   0.04  -0.01    -0.10  -0.13  -0.02
   8   1    -0.22   0.00  -0.06     0.20  -0.02   0.06     0.15   0.25  -0.02
   9   1     0.02   0.06   0.11     0.03  -0.04  -0.05    -0.23   0.26   0.26
  10   1     0.11   0.07   0.18    -0.08  -0.06  -0.15    -0.20  -0.18   0.06
  11   1    -0.17   0.18  -0.13     0.19  -0.27   0.14    -0.02   0.01  -0.01
  12   1     0.06   0.03   0.23     0.02   0.06  -0.35     0.01   0.00  -0.00
  13   1     0.13   0.06   0.06     0.03  -0.21   0.06    -0.02   0.01  -0.01
  14   1    -0.06  -0.04  -0.03     0.06   0.07  -0.21     0.01   0.01  -0.02
  15   1     0.06   0.31   0.00    -0.01  -0.01  -0.01     0.00   0.00   0.00
  16   1     0.04  -0.20  -0.24     0.00  -0.02  -0.00    -0.00   0.00  -0.00
  17   1     0.13  -0.09  -0.01    -0.04  -0.08  -0.20     0.04  -0.00   0.03
  18   1    -0.06   0.06   0.01    -0.06  -0.11   0.19    -0.02  -0.03   0.04
  19   1     0.05  -0.20   0.12    -0.03  -0.23   0.27    -0.01   0.01  -0.01
  20   1    -0.18   0.00  -0.22    -0.21  -0.05  -0.29     0.02  -0.01   0.01
  21   1     0.10  -0.19   0.05     0.07  -0.16   0.05     0.26  -0.10  -0.24
  22   1     0.02  -0.12   0.02    -0.03  -0.07   0.01     0.33   0.45   0.04
  23   1    -0.22   0.06  -0.03    -0.20   0.05  -0.04    -0.18   0.19   0.27
                     16                     17                     18
                        a                      a                      a 
 Frequencies --  1506.0381              1508.5971              1509.0344
 Red. masses --    99.0000                99.0000                99.0000
 Frc consts  --    99.0000                99.0000                99.0000
 IR Inten    --    99.0000                99.0000                99.0000
 Raman Activ --     0.0000                 0.0000                 0.0000
 Depolar     --     0.0000                 0.0000                 0.0000
 Atom AN      X      Y      Z        X      Y      Z        X      Y      Z
   1   6     0.09  -0.10  -0.10    -0.03  -0.12   0.10    -0.03  -0.10   0.08
   2   6     0.02  -0.01  -0.03    -0.01  -0.05   0.04     0.00  -0.06   0.07
   3   6     0.01  -0.02   0.04     0.02  -0.01   0.03     0.02  -0.01   0.04
   4   6    -0.01  -0.00   0.00     0.00  -0.00   0.01    -0.00  -0.01  -0.00
   5   6     0.01  -0.01   0.04     0.01  -0.02   0.02    -0.02   0.03  -0.04
   6   6     0.01   0.03  -0.01    -0.01   0.00   0.06    -0.01   0.02  -0.10
   7   6     0.08   0.10   0.01    -0.02  -0.00   0.14     0.02   0.00  -0.15
   8   1     0.19   0.30  -0.02    -0.19   0.41  -0.13    -0.15   0.33  -0.10
   9   1    -0.30   0.33   0.32     0.17  -0.04   0.16     0.15  -0.04   0.13
  10   1    -0.27  -0.23   0.09     0.12   0.10  -0.45     0.11   0.09  -0.37
  11   1     0.01  -0.04  -0.00    -0.02   0.06  -0.01    -0.06   0.12  -0.03
  12   1     0.02   0.00   0.06     0.03   0.01  -0.06     0.02   0.01  -0.14
  13   1    -0.08   0.08  -0.04    -0.06   0.07  -0.04    -0.08   0.09  -0.04
  14   1     0.03   0.02  -0.11     0.01   0.00  -0.10     0.01  -0.00  -0.13
  15   1     0.01  -0.00   0.01    -0.00   0.00   0.00     0.00   0.00   0.00
  16   1     0.01  -0.00   0.00    -0.00  -0.00  -0.00    -0.00   0.00   0.00
  17   1    -0.07  -0.01  -0.08    -0.05  -0.01  -0.07     0.09   0.02   0.10
  18   1     0.03   0.07  -0.08     0.01   0.06  -0.06    -0.02  -0.11   0.09
  19   1     0.01  -0.04   0.03     0.03   0.02  -0.03    -0.02  -0.11   0.10
  20   1     0.01   0.02   0.03    -0.01  -0.02  -0.04     0.07   0.05   0.12
  21   1    -0.20   0.07   0.19     0.11   0.25  -0.32    -0.13  -0.26   0.35
  22   1    -0.25  -0.33  -0.04     0.15  -0.11   0.11    -0.17   0.10  -0.12
  23   1     0.13  -0.14  -0.19    -0.18  -0.13  -0.35     0.20   0.14   0.37
                     19                     20                     21
                        a                      a                      a 
 Frequencies --   915.7749               907.9308               881.4975
 Red. masses --    99.0000                99.0000                99.0000
 Frc consts  --    99.0000                99.0000                99.0000
 IR Inten    --    99.0000                99.0000                99.0000
 Raman Activ --     0.0000                 0.0000                 0.0000
 Depolar     --     0.0000                 0.0000                 0.0000
 Atom AN      X      Y      Z        X      Y      Z        X      Y      Z
   1   6    -0.18  -0.01   0.05    -0.07  -0.17  -0.05    -0.05  -0.12   0.01
   2   6    -0.00  -0.08   0.12     0.01  -0.17   0.12    -0.01  -0.18   0.11
   3   6     0.19   0.00  -0.16    -0.05   0.25  -0.04    -0.26   0.18  -0.28
   4   6     0.01   0.13   0.06     0.20   0.04  -0.10     0.01   0.26   0.12
   5   6    -0.20  -0.11   0.11    -0.06  -0.12  -0.22     0.26  -0.12   0.31
   6   6     0.00   0.04  -0.13     0.02   0.01   0.21    -0.00  -0.03  -0.21
   7   6     0.18   0.02  -0.05    -0.06   0.15   0.10     0.05  -0.08  -0.10
   8   1     0.26   0.03   0.08    -0.13   0.06  -0.06    -0.01   0.09  -0.02
   9   1    -0.08  -0.07  -0.17    -0.23   0.04  -0.11    -0.23   0.02  -0.15
  10   1    -0.11  -0.06  -0.19     0.18   0.13   0.14     0.16   0.11   0.08
  11   1     0.19   0.09   0.06    -0.12  -0.08   0.01    -0.04   0.00   0.01
  12   1    -0.14  -0.13  -0.02     0.15   0.07   0.10     0.10   0.03   0.10
  13   1    -0.04   0.22  -0.12     0.06  -0.12   0.05    -0.01  -0.04  -0.04
  14   1    -0.04  -0.05   0.20     0.03   0.08  -0.19    -0.11   0.01  -0.20
  15   1    -0.10   0.06  -0.03     0.09  -0.18   0.04    -0.08   0.10  -0.00
  16   1     0.10   0.01   0.06     0.10   0.08   0.16     0.09   0.05   0.07
  17   1     0.06   0.04   0.25     0.07   0.03   0.12     0.01  -0.06  -0.01
  18   1     0.04   0.12  -0.17     0.03   0.09  -0.19     0.10  -0.16   0.13
  19   1     0.13  -0.10  -0.09     0.15  -0.13   0.00    -0.10   0.10  -0.03
  20   1    -0.19   0.12   0.04    -0.12   0.05   0.07     0.04   0.01  -0.00
  21   1     0.11  -0.19   0.07     0.17  -0.19  -0.02    -0.15   0.14   0.04
  22   1     0.06  -0.18   0.04    -0.23   0.08  -0.09     0.22  -0.12   0.10
  23   1    -0.25   0.10  -0.02    -0.13   0.02  -0.09     0.02   0.03   0.08
                     22                     23                     24
                        a                      a                      a 
 Frequencies --   962.4143              1068.4749              1503.7652
 Red. masses --    99.0000                99.0000                99.0000
 Frc consts  --    99.0000                99.0000                99.0000
 IR Inten    --    99.0000                99.0000                99.0000
 Raman Activ --     0.0000                 0.0000                 0.0000
 Depolar     --     0.0000                 0.0000                 0.0000
 Atom AN      X      Y      Z        X      Y      Z        X      Y      Z
   1   6     0.15   0.10  -0.10     0.13  -0.13   0.11     0.01  -0.04   0.03
   2   6    -0.03   0.08  -0.03    -0.19   0.14  -0.11    -0.05   0.01  -0.07
   3   6    -0.04  -0.09   0.16     0.02  -0.18  -0.07    -0.04   0.08  -0.14
   4   6     0.08   0.10  -0.21     0.02  -0.07   0.14     0.00   0.07   0.03
   5   6    -0.04  -0.06   0.17     0.03   0.16   0.10     0.04  -0.06   0.15
   6   6    -0.03  -0.02  -0.08    -0.19   0.00  -0.17     0.05  -0.05   0.05
   7   6     0.15   0.00  -0.15     0.13  -0.01   0.16    -0.01   0.00  -0.05
   8   1    -0.23  -0.10  -0.06     0.02   0.09   0.00    -0.07   0.16  -0.05
   9   1     0.22   0.05   0.24    -0.14   0.02  -0.08     0.04   0.01   0.08
  10   1    -0.03  -0.04   0.10     0.21   0.11   0.11     0.02   0.01  -0.17
  11   1    -0.19  -0.17  -0.02    -0.02  -0.06  -0.00     0.13  -0.13   0.06
  12   1     0.03   0.05  -0.05     0.12   0.17  -0.12     0.03   0.02   0.20
  13   1    -0.15  -0.21   0.04    -0.19  -0.05  -0.08     0.22  -0.28   0.13
  14   1     0.03   0.00  -0.02     0.23   0.16   0.15    -0.05  -0.01   0.37
  15   1    -0.10  -0.22  -0.03    -0.14   0.11  -0.05    -0.04  -0.15   0.03
  16   1    -0.08   0.17   0.16    -0.15  -0.02  -0.12     0.03  -0.07  -0.14
  17   1    -0.13   0.12   0.19    -0.18   0.10  -0.01    -0.23  -0.06  -0.29
  18   1     0.03   0.01  -0.01     0.21  -0.23  -0.04     0.06   0.28  -0.24
  19   1     0.03   0.01  -0.07     0.11  -0.02  -0.21    -0.02   0.18  -0.12
  20   1    -0.17   0.13   0.12    -0.01   0.04   0.05    -0.14  -0.03  -0.14
  21   1    -0.03  -0.05   0.09     0.19  -0.17  -0.02    -0.02  -0.12   0.12
  22   1     0.21  -0.23   0.11    -0.14   0.05  -0.06    -0.04   0.07  -0.04
  23   1    -0.22   0.13   0.04     0.01  -0.05  -0.07     0.08   0.06   0.16
                     25                     26                     27
                        a                      a                      a 
 Frequencies --  1489.9021              1492.6562              1501.2953
 Red. masses --    99.0000                99.0000                99.0000
 Frc consts  --    99.0000                99.0000                99.0000
 IR Inten    --    99.0000                99.0000                99.0000
 Raman Activ --     0.0000                 0.0000                 0.0000
 Depolar     --     0.0000                 0.0000                 0.0000
 Atom AN      X      Y      Z        X      Y      Z        X      Y      Z
   1   6    -0.01  -0.01   0.01    -0.02   0.02  -0.02    -0.01   0.05   0.02
   2   6     0.00  -0.01   0.01     0.06  -0.08   0.14    -0.02   0.05  -0.07
   3   6    -0.01   0.02  -0.06     0.03  -0.05   0.09     0.03  -0.09   0.12
   4   6    -0.01  -0.24  -0.11     0.00  -0.01   0.01     0.00   0.00   0.01
   5   6     0.01  -0.03   0.05     0.03  -0.04   0.09     0.03  -0.05   0.16
   6   6    -0.01   0.00  -0.02     0.07  -0.06   0.15    -0.02   0.02  -0.10
   7   6     0.01  -0.00  -0.01    -0.02   0.01  -0.03    -0.01  -0.04  -0.02
   8   1     0.01   0.03  -0.00     0.05  -0.09   0.03    -0.04  -0.12   0.02
   9   1     0.01   0.00   0.02    -0.01  -0.01  -0.03     0.04  -0.07  -0.11
  10   1     0.01   0.01  -0.02     0.00   0.00   0.10     0.03   0.03   0.01
  11   1    -0.04   0.03  -0.02    -0.24   0.31  -0.12     0.12  -0.18   0.07
  12   1     0.02   0.02  -0.05     0.03   0.02  -0.40     0.00   0.00   0.23
  13   1     0.08  -0.12   0.05    -0.13   0.18  -0.08    -0.21   0.28  -0.13
  14   1    -0.03  -0.02   0.16     0.03   0.00  -0.24     0.06   0.01  -0.36
  15   1     0.19   0.60  -0.09     0.00   0.01  -0.00     0.01  -0.02   0.01
  16   1    -0.16   0.32   0.53    -0.01   0.01   0.01     0.02  -0.01  -0.00
  17   1    -0.08  -0.03  -0.12    -0.14  -0.04  -0.18    -0.24  -0.07  -0.32
  18   1     0.03   0.10  -0.11     0.04   0.18  -0.15     0.07   0.29  -0.26
  19   1    -0.02  -0.04   0.06     0.03   0.30  -0.27    -0.01  -0.21   0.17
  20   1     0.05   0.01   0.05    -0.25  -0.09  -0.30     0.15   0.06   0.21
  21   1    -0.01  -0.01   0.02    -0.00  -0.07   0.06     0.03  -0.02  -0.02
  22   1    -0.01   0.02  -0.01    -0.01   0.03  -0.01     0.05   0.12  -0.01
  23   1    -0.01   0.02   0.02     0.05   0.03   0.09    -0.04   0.06   0.10
                     28                     29                     30
                        a                      a                      a 
 Frequencies --  1224.9937              1500.2557              1158.4264
 Red. masses --    99.0000                99.0000                99.0000
 Frc consts  --    99.0000                99.0000                99.0000
 IR Inten    --    99.0000                99.0000                99.0000
 Raman Activ --     0.0000                 0.0000                 0.0000
 Depolar     --     0.0000                 0.0000                 0.0000
 Atom AN      X      Y      Z        X      Y      Z        X      Y      Z
   1   6    -0.11   0.07   0.16     0.01  -0.01   0.02     0.05  -0.13   0.03
   2   6     0.16  -0.07  -0.25    -0.04   0.10  -0.13    -0.09   0.26  -0.11
   3   6    -0.03   0.04   0.19     0.00  -0.06   0.07     0.03  -0.33  -0.00
   4   6    -0.00  -0.03  -0.01    -0.00  -0.06  -0.03     0.01   0.28   0.14
   5   6     0.04   0.17  -0.09    -0.00   0.01  -0.07    -0.05  -0.20  -0.26
   6   6    -0.17  -0.22   0.11     0.04  -0.04   0.15     0.10   0.07   0.28
   7   6     0.12   0.16  -0.05    -0.01   0.01  -0.02    -0.05  -0.05  -0.12
   8   1     0.20   0.03   0.09    -0.06   0.05  -0.02    -0.01   0.07  -0.02
   9   1    -0.01  -0.06  -0.09     0.02  -0.01  -0.01    -0.12   0.01  -0.06
  10   1    -0.08  -0.03  -0.14     0.01   0.01  -0.08     0.14   0.08   0.07
  11   1    -0.15   0.05  -0.12     0.22  -0.34   0.12     0.06  -0.01   0.01
  12   1     0.08   0.01   0.14    -0.05  -0.04   0.42     0.10   0.16  -0.12
  13   1    -0.15  -0.23   0.05    -0.11   0.19  -0.08    -0.26  -0.10  -0.09
  14   1     0.02   0.02  -0.06     0.04   0.02  -0.23     0.02  -0.06   0.16
  15   1    -0.27   0.05  -0.12     0.05   0.16  -0.03    -0.06   0.07   0.01
  16   1     0.27  -0.07   0.11    -0.04   0.08   0.14     0.07   0.05   0.05
  17   1     0.13  -0.12  -0.22     0.09   0.05   0.16     0.25  -0.15  -0.03
  18   1    -0.02  -0.03   0.06    -0.04  -0.13   0.13    -0.01   0.08  -0.14
  19   1    -0.07   0.12  -0.08     0.06   0.27  -0.27    -0.09   0.01   0.20
  20   1     0.15  -0.07   0.11    -0.22  -0.10  -0.31    -0.07   0.00  -0.00
  21   1     0.07  -0.13   0.07    -0.01  -0.06   0.06    -0.14   0.11   0.03
  22   1     0.00  -0.11   0.02    -0.01   0.01  -0.01     0.12  -0.05   0.05
  23   1    -0.19   0.10  -0.03     0.05   0.02   0.06     0.01   0.03   0.06
                     31                     32                     33
                        a                      a                      a 
 Frequencies --   996.9700              1161.8216              1237.5041
 Red. masses --    99.0000                99.0000                99.0000
 Frc consts  --    99.0000                99.0000                99.0000
 IR Inten    --    99.0000                99.0000                99.0000
 Raman Activ --     0.0000                 0.0000                 0.0000
 Depolar     --     0.0000                 0.0000                 0.0000
 Atom AN      X      Y      Z        X      Y      Z        X      Y      Z
   1   6     0.12   0.18   0.04     0.05   0.06  -0.13     0.13  -0.15  -0.11
   2   6    -0.03  -0.00  -0.12    -0.07  -0.15   0.29    -0.17   0.20   0.11
   3   6    -0.31  -0.16  -0.13     0.15   0.17  -0.25     0.05  -0.08   0.00
   4   6     0.01   0.27   0.13    -0.18  -0.08   0.17    -0.01   0.03  -0.07
   5   6     0.30  -0.22  -0.05     0.15   0.09  -0.29     0.05   0.04   0.06
   6   6     0.03  -0.10   0.08    -0.07  -0.13   0.29    -0.18  -0.21  -0.08
   7   6    -0.11   0.16   0.12     0.05   0.07  -0.13     0.14   0.18   0.04
   8   1     0.05  -0.06   0.04    -0.16  -0.08  -0.05    -0.17   0.02  -0.09
   9   1     0.22  -0.01   0.13     0.11   0.03   0.12    -0.07   0.06   0.04
  10   1    -0.13  -0.09  -0.06    -0.05  -0.04   0.05     0.15   0.06   0.16
  11   1     0.02   0.09  -0.04    -0.06  -0.18   0.09     0.21   0.00   0.10
  12   1    -0.13  -0.09  -0.00    -0.05  -0.07  -0.02    -0.17  -0.04  -0.17
  13   1    -0.03   0.00  -0.03    -0.01   0.12  -0.10     0.12   0.15   0.00
  14   1    -0.25  -0.19  -0.06     0.13   0.14   0.05    -0.20  -0.20   0.00
  15   1     0.06   0.05   0.06    -0.04   0.19  -0.01     0.11  -0.06   0.04
  16   1    -0.05   0.08   0.01    -0.05  -0.11  -0.15     0.11  -0.00   0.07
  17   1     0.03  -0.02   0.02    -0.02   0.00  -0.16     0.11  -0.11  -0.12
  18   1     0.24  -0.18  -0.11     0.12  -0.14  -0.07    -0.19   0.14   0.16
  19   1     0.13  -0.07  -0.08    -0.05   0.06   0.04    -0.16   0.17  -0.07
  20   1    -0.01   0.02   0.09    -0.05   0.05   0.20     0.21  -0.10   0.06
  21   1     0.12  -0.11  -0.03    -0.04  -0.02   0.06     0.14  -0.17   0.04
  22   1    -0.22   0.11  -0.08     0.10  -0.12   0.05    -0.08  -0.06  -0.02
  23   1    -0.05  -0.01  -0.07    -0.15   0.10   0.03    -0.17   0.07  -0.07
                     34                     35                     36
                        a                      a                      a 
 Frequencies --  1061.2506              1087.6903              1098.1200
 Red. masses --    99.0000                99.0000                99.0000
 Frc consts  --    99.0000                99.0000                99.0000
 IR Inten    --    99.0000                99.0000                99.0000
 Raman Activ --     0.0000                 0.0000                 0.0000
 Depolar     --     0.0000                 0.0000                 0.0000
 Atom AN      X      Y      Z        X      Y      Z        X      Y      Z
   1   6     0.02  -0.08   0.18    -0.26  -0.08  -0.21    -0.28  -0.02  -0.21
   2   6    -0.04   0.06  -0.23     0.31   0.20   0.18     0.38   0.16   0.14
   3   6    -0.10  -0.04   0.10     0.11  -0.07   0.13    -0.11  -0.09   0.06
   4   6    -0.00  -0.11  -0.05    -0.22   0.04  -0.07    -0.00  -0.03  -0.01
   5   6     0.10   0.05  -0.10     0.11  -0.06   0.13     0.10  -0.02  -0.11
   6   6     0.04  -0.14   0.19     0.29  -0.28  -0.05    -0.37   0.23   0.05
   7   6    -0.02   0.09  -0.18    -0.25   0.23  -0.06     0.27  -0.20   0.11
   8   1     0.20   0.10   0.07    -0.13  -0.02  -0.07    -0.10  -0.03  -0.06
   9   1    -0.15  -0.02  -0.16    -0.09  -0.00  -0.05    -0.04  -0.01  -0.03
  10   1     0.11   0.07  -0.02    -0.05  -0.01  -0.03    -0.12  -0.04  -0.08
  11   1     0.11   0.19  -0.06     0.12   0.03   0.06     0.18   0.13   0.04
  12   1     0.01   0.03   0.01     0.17   0.12   0.02     0.15   0.08   0.06
  13   1     0.24   0.11   0.09    -0.05  -0.03   0.01    -0.01  -0.07   0.03
  14   1    -0.02  -0.01  -0.07     0.04  -0.00   0.10    -0.10  -0.09  -0.05
  15   1     0.30  -0.11   0.12    -0.17   0.04  -0.07     0.11  -0.04   0.04
  16   1    -0.30   0.04  -0.15    -0.17   0.04  -0.07    -0.11   0.02  -0.05
  17   1    -0.23   0.15   0.04    -0.05   0.01   0.03     0.00  -0.02  -0.07
  18   1     0.01  -0.06   0.03     0.03  -0.07   0.06     0.09  -0.10  -0.05
  19   1    -0.00   0.03   0.02     0.17  -0.10  -0.09    -0.14   0.11   0.03
  20   1    -0.09   0.08   0.19     0.12  -0.08   0.01    -0.17   0.12   0.08
  21   1    -0.10   0.03   0.07    -0.05   0.03  -0.01     0.11  -0.09   0.01
  22   1     0.15  -0.15   0.08    -0.09   0.05  -0.03     0.04  -0.04   0.01
  23   1    -0.19   0.13   0.04    -0.13   0.07  -0.03     0.10  -0.07   0.01
                     37                     38                     39
                        a                      a                      a 
 Frequencies --  1282.5424              1146.5668              1289.3979
 Red. masses --    99.0000                99.0000                99.0000
 Frc consts  --    99.0000                99.0000                99.0000
 IR Inten    --    99.0000                99.0000                99.0000
 Raman Activ --     0.0000                 0.0000                 0.0000
 Depolar     --     0.0000                 0.0000                 0.0000
 Atom AN      X      Y      Z        X      Y      Z        X      Y      Z
   1   6     0.05  -0.06  -0.06    -0.05   0.04  -0.11    -0.04   0.01   0.06
   2   6     0.06  -0.05  -0.04     0.12   0.05   0.08    -0.00   0.13   0.04
   3   6    -0.07   0.12   0.10    -0.28  -0.17  -0.23     0.08  -0.05  -0.02
   4   6    -0.01  -0.01   0.02     0.36  -0.18   0.34    -0.00  -0.10  -0.05
   5   6    -0.08  -0.15  -0.03    -0.26   0.30  -0.01    -0.08  -0.04  -0.03
   6   6     0.07   0.06   0.01     0.12  -0.10   0.00     0.01   0.11   0.07
   7   6     0.06   0.09   0.01    -0.05   0.07  -0.10     0.04   0.05  -0.03
   8   1    -0.07  -0.00  -0.04    -0.08  -0.04  -0.04     0.05   0.02   0.03
   9   1    -0.01   0.01   0.01     0.04   0.01   0.04    -0.03  -0.00  -0.03
  10   1     0.06   0.02   0.05    -0.06  -0.03  -0.01    -0.02  -0.00  -0.04
  11   1     0.26   0.24   0.01     0.09   0.06   0.03    -0.28  -0.25  -0.01
  12   1    -0.30  -0.26   0.01     0.08   0.05   0.00     0.18   0.17  -0.04
  13   1    -0.15  -0.21   0.03    -0.18  -0.12  -0.08     0.21   0.22   0.01
  14   1     0.19   0.19  -0.08    -0.06  -0.03  -0.02    -0.28  -0.27   0.00
  15   1    -0.08   0.02  -0.03     0.23   0.04   0.12    -0.12  -0.02  -0.06
  16   1    -0.08   0.01  -0.03     0.22  -0.13   0.04     0.12  -0.07   0.02
  17   1    -0.14   0.12   0.19    -0.17   0.15   0.05    -0.19   0.16   0.17
  18   1     0.18  -0.08  -0.21    -0.06   0.04   0.02     0.26  -0.18  -0.22
  19   1    -0.29   0.17   0.22     0.08  -0.04  -0.04    -0.16   0.09   0.16
  20   1     0.25  -0.17  -0.19     0.09  -0.06  -0.04     0.25  -0.18  -0.19
  21   1     0.05  -0.06   0.02    -0.05   0.03   0.01     0.02  -0.04   0.02
  22   1    -0.01  -0.01  -0.00     0.04  -0.04   0.02     0.03  -0.03   0.01
  23   1    -0.07   0.04  -0.02    -0.08   0.05   0.01    -0.05   0.04   0.00
                     40                     41                     42
                        a                      a                      a 
 Frequencies --  1268.5052              1301.3824              1317.0455
 Red. masses --    99.0000                99.0000                99.0000
 Frc consts  --    99.0000                99.0000                99.0000
 IR Inten    --    99.0000                99.0000                99.0000
 Raman Activ --     0.0000                 0.0000                 0.0000
 Depolar     --     0.0000                 0.0000                 0.0000
 Atom AN      X      Y      Z        X      Y      Z        X      Y      Z
   1   6    -0.08   0.14   0.05    -0.01  -0.08   0.09     0.00  -0.07   0.07
   2   6     0.01  -0.14   0.02     0.16   0.17  -0.04     0.18   0.16  -0.01
   3   6     0.03  -0.09  -0.17     0.17   0.13  -0.03     0.11   0.14  -0.08
   4   6     0.01   0.16   0.07    -0.08  -0.07   0.15    -0.00  -0.01  -0.01
   5   6    -0.04  -0.19   0.04     0.16  -0.07  -0.13    -0.10   0.03   0.16
   6   6    -0.02  -0.08  -0.12     0.15  -0.09  -0.16    -0.17   0.10   0.13
   7   6     0.09   0.12   0.07    -0.01  -0.02   0.12    -0.01   0.01  -0.10
   8   1     0.09  -0.04   0.05     0.01   0.04   0.01    -0.01   0.04  -0.00
   9   1     0.08  -0.03   0.00    -0.11  -0.01  -0.09    -0.10  -0.01  -0.09
  10   1    -0.11  -0.05  -0.09     0.03   0.01  -0.04     0.02   0.00  -0.03
  11   1    -0.18  -0.11  -0.03    -0.24  -0.19  -0.04    -0.23  -0.18  -0.04
  12   1     0.28   0.18   0.08    -0.20  -0.15  -0.03    -0.26  -0.20  -0.03
  13   1    -0.08   0.04  -0.09    -0.25  -0.19  -0.06    -0.20  -0.17  -0.05
  14   1     0.20   0.15   0.05    -0.20  -0.17  -0.03    -0.11  -0.08   0.00
  15   1     0.30  -0.04   0.15     0.02   0.09   0.02     0.26  -0.09   0.12
  16   1    -0.30   0.11  -0.12     0.01  -0.07  -0.06    -0.26   0.05  -0.13
  17   1     0.08  -0.05   0.09    -0.24   0.18   0.11     0.18  -0.16  -0.10
  18   1    -0.19   0.15   0.09    -0.19   0.15   0.12     0.10  -0.06  -0.07
  19   1    -0.26   0.19   0.09    -0.19   0.13   0.10     0.25  -0.16  -0.14
  20   1     0.17  -0.10  -0.07    -0.23   0.17   0.13     0.22  -0.16  -0.13
  21   1     0.11  -0.11   0.02     0.03   0.02  -0.03    -0.02  -0.02   0.02
  22   1    -0.08  -0.01  -0.02    -0.10   0.09  -0.05     0.10  -0.08   0.04
  23   1    -0.09   0.02  -0.06     0.01  -0.04  -0.03     0.02   0.02   0.03
                     43                     44                     45
                        a                      a                      a 
 Frequencies --  1363.4815              1372.7104              1375.7544
 Red. masses --    99.0000                99.0000                99.0000
 Frc consts  --    99.0000                99.0000                99.0000
 IR Inten    --    99.0000                99.0000                99.0000
 Raman Activ --     0.0000                 0.0000                 0.0000
 Depolar     --     0.0000                 0.0000                 0.0000
 Atom AN      X      Y      Z        X      Y      Z        X      Y      Z
   1   6    -0.01   0.00   0.01    -0.01  -0.05   0.04    -0.02  -0.04   0.02
   2   6    -0.01  -0.02  -0.03     0.23   0.18   0.04     0.22   0.15   0.04
   3   6     0.11  -0.07   0.01    -0.23  -0.18  -0.04    -0.26  -0.21  -0.05
   4   6    -0.50   0.10  -0.17     0.03   0.04  -0.08     0.01   0.09   0.04
   5   6     0.12   0.02   0.06    -0.22   0.16   0.13     0.24  -0.19  -0.14
   6   6    -0.01   0.04  -0.00     0.22  -0.16  -0.12    -0.21   0.14   0.09
   7   6    -0.01  -0.01   0.00    -0.01   0.00   0.06     0.02  -0.01  -0.05
   8   1     0.01  -0.00   0.01    -0.03   0.03  -0.01    -0.02   0.03  -0.01
   9   1     0.01  -0.01  -0.01    -0.06  -0.01  -0.05    -0.04  -0.01  -0.04
  10   1     0.01   0.01  -0.00     0.00  -0.00  -0.04     0.01   0.00  -0.04
  11   1     0.01   0.03  -0.01    -0.21  -0.16  -0.02    -0.18  -0.11  -0.03
  12   1     0.03   0.02   0.00    -0.21  -0.16  -0.03    -0.17  -0.14  -0.04
  13   1    -0.12  -0.08  -0.03     0.22   0.17   0.04     0.22   0.15   0.04
  14   1     0.13   0.08   0.09     0.20   0.18   0.03     0.25   0.22   0.08
  15   1     0.47  -0.09   0.21     0.06  -0.06   0.02    -0.13   0.05  -0.05
  16   1     0.47  -0.13   0.19     0.06   0.02   0.06     0.13  -0.01   0.06
  17   1    -0.12   0.08   0.05     0.21  -0.15  -0.11    -0.20   0.14   0.09
  18   1     0.12  -0.13  -0.01     0.19  -0.15  -0.12    -0.23   0.22   0.12
  19   1     0.03  -0.02  -0.02    -0.20   0.14   0.11     0.16  -0.13  -0.08
  20   1     0.01  -0.01  -0.03    -0.20   0.13   0.12     0.17  -0.10  -0.07
  21   1     0.01  -0.00  -0.01     0.01   0.04  -0.03    -0.01  -0.03   0.02
  22   1     0.01   0.01   0.00    -0.06   0.05  -0.03     0.04  -0.03   0.02
  23   1     0.01  -0.00   0.01    -0.03  -0.01  -0.03     0.02   0.01   0.03
                     46                     47                     48
                        a                      a                      a 
 Frequencies --  1416.7271              1416.9369              2958.4366
 Red. masses --    99.0000                99.0000                99.0000
 Frc consts  --    99.0000                99.0000                99.0000
 IR Inten    --    99.0000                99.0000                99.0000
 Raman Activ --     0.0000                 0.0000                 0.0000
 Depolar     --     0.0000                 0.0000                 0.0000
 Atom AN      X      Y      Z        X      Y      Z        X      Y      Z
   1   6    -0.25  -0.08  -0.15    -0.26  -0.08  -0.15     0.00   0.00  -0.01
   2   6     0.04   0.03   0.00     0.04   0.04   0.00    -0.04   0.04   0.06
   3   6    -0.00   0.01  -0.01    -0.01  -0.00  -0.01     0.11  -0.12  -0.04
   4   6    -0.00   0.00   0.00     0.00  -0.01   0.01     0.04   0.03  -0.06
   5   6     0.00  -0.00   0.02    -0.01   0.01  -0.00     0.12   0.10   0.07
   6   6    -0.04   0.03   0.03     0.04  -0.03  -0.03    -0.04  -0.07   0.01
   7   6     0.25  -0.19   0.03    -0.24   0.18  -0.03     0.00   0.00  -0.01
   8   1     0.35   0.08   0.06     0.36   0.08   0.06    -0.01   0.01   0.02
   9   1     0.24  -0.03   0.26     0.25  -0.03   0.27    -0.00  -0.01   0.00
  10   1     0.23   0.20   0.19     0.24   0.20   0.19    -0.00   0.00  -0.00
  11   1    -0.02  -0.06   0.01    -0.02  -0.06   0.01     0.06  -0.04  -0.24
  12   1    -0.04  -0.03   0.03    -0.04  -0.03   0.03     0.08  -0.11   0.01
  13   1    -0.01  -0.01  -0.00    -0.01   0.01  -0.01    -0.05   0.02   0.17
  14   1    -0.01  -0.00  -0.00    -0.00   0.00  -0.01    -0.36   0.42  -0.03
  15   1     0.01  -0.02   0.01     0.00   0.00   0.00    -0.06   0.04   0.15
  16   1    -0.01  -0.00  -0.02     0.00  -0.00  -0.00    -0.06  -0.14   0.06
  17   1     0.01  -0.01  -0.00    -0.01   0.00  -0.01    -0.05  -0.15   0.09
  18   1     0.01  -0.00  -0.00    -0.00   0.01  -0.01    -0.39  -0.22  -0.34
  19   1     0.04  -0.00  -0.05    -0.04  -0.00   0.05     0.09   0.06   0.09
  20   1     0.02  -0.03  -0.05    -0.02   0.04   0.05     0.07   0.21  -0.12
  21   1    -0.22   0.29   0.05     0.21  -0.28  -0.05    -0.00   0.00  -0.00
  22   1    -0.24   0.20  -0.19     0.23  -0.19   0.18    -0.00   0.00   0.01
  23   1    -0.35   0.12   0.03     0.34  -0.12  -0.03    -0.01  -0.02   0.01
                     49                     50                     51
                        a                      a                      a 
 Frequencies --  2956.1123              2954.9850              2967.7071
 Red. masses --    99.0000                99.0000                99.0000
 Frc consts  --    99.0000                99.0000                99.0000
 IR Inten    --    99.0000                99.0000                99.0000
 Raman Activ --     0.0000                 0.0000                 0.0000
 Depolar     --     0.0000                 0.0000                 0.0000
 Atom AN      X      Y      Z        X      Y      Z        X      Y      Z
   1   6     0.00   0.00  -0.00    -0.00   0.00   0.00    -0.01   0.01   0.01
   2   6    -0.04   0.04   0.04     0.00  -0.00  -0.02     0.07  -0.07  -0.14
   3   6     0.12  -0.12  -0.05     0.03  -0.04  -0.04     0.01  -0.01   0.02
   4   6    -0.00   0.06   0.04    -0.12  -0.11   0.22     0.00   0.09   0.04
   5   6    -0.12  -0.10  -0.06     0.05   0.06   0.01    -0.02   0.01  -0.02
   6   6     0.04   0.05   0.00    -0.00   0.01  -0.01    -0.08  -0.15   0.04
   7   6    -0.00  -0.00   0.00    -0.00  -0.00  -0.00     0.01   0.01  -0.00
   8   1    -0.00   0.00   0.02     0.00  -0.00  -0.00     0.01  -0.01  -0.05
   9   1    -0.00  -0.00   0.00    -0.00  -0.00   0.00     0.00   0.01  -0.00
  10   1    -0.00   0.00  -0.00     0.00  -0.00  -0.00     0.02  -0.03   0.00
  11   1     0.04  -0.02  -0.15    -0.01   0.01   0.05    -0.14   0.10   0.51
  12   1     0.10  -0.13   0.00     0.01  -0.01  -0.00    -0.10   0.14  -0.02
  13   1    -0.06   0.03   0.22    -0.05   0.04   0.17     0.03  -0.02  -0.08
  14   1    -0.36   0.43  -0.03    -0.07   0.09  -0.01    -0.07   0.08  -0.00
  15   1     0.09  -0.05  -0.25     0.20  -0.16  -0.56     0.12  -0.06  -0.31
  16   1    -0.09  -0.18   0.10     0.24   0.54  -0.25    -0.13  -0.26   0.15
  17   1     0.06   0.17  -0.11    -0.07  -0.17   0.09    -0.04  -0.07   0.04
  18   1     0.38   0.21   0.33    -0.11  -0.06  -0.10     0.08   0.05   0.07
  19   1    -0.10  -0.07  -0.10     0.02   0.01   0.02     0.11   0.07   0.11
  20   1    -0.04  -0.13   0.08    -0.01  -0.03   0.02     0.16   0.47  -0.26
  21   1     0.00  -0.00   0.00     0.00   0.00   0.00    -0.03  -0.02  -0.03
  22   1     0.00  -0.00  -0.00    -0.00   0.00   0.00    -0.00   0.01   0.01
  23   1     0.00   0.01  -0.01     0.00   0.00  -0.00    -0.01  -0.05   0.03
                     52                     53                     54
                        a                      a                      a 
 Frequencies --  2970.2794              2995.7437              2987.9881
 Red. masses --    99.0000                99.0000                99.0000
 Frc consts  --    99.0000                99.0000                99.0000
 IR Inten    --    99.0000                99.0000                99.0000
 Raman Activ --     0.0000                 0.0000                 0.0000
 Depolar     --     0.0000                 0.0000                 0.0000
 Atom AN      X      Y      Z        X      Y      Z        X      Y      Z
   1   6     0.01  -0.01  -0.01    -0.00  -0.03   0.02     0.00   0.02  -0.02
   2   6    -0.07   0.07   0.15    -0.04   0.06  -0.05     0.04  -0.06   0.06
   3   6    -0.05   0.06  -0.01     0.01   0.01  -0.12    -0.00  -0.02   0.12
   4   6    -0.02  -0.02   0.03     0.02   0.02  -0.05    -0.00   0.01   0.00
   5   6    -0.05  -0.02  -0.05     0.01   0.08  -0.09     0.01   0.08  -0.09
   6   6    -0.07  -0.15   0.04    -0.04   0.00  -0.08    -0.05   0.01  -0.09
   7   6     0.01   0.01  -0.00    -0.00   0.00   0.03    -0.00   0.00   0.03
   8   1    -0.01   0.01   0.06     0.02  -0.02  -0.06    -0.01   0.01   0.05
   9   1    -0.00  -0.01   0.00     0.03   0.06  -0.03    -0.02  -0.04   0.02
  10   1    -0.03   0.04  -0.00    -0.05   0.06   0.00     0.04  -0.04  -0.00
  11   1     0.15  -0.11  -0.56    -0.07   0.05   0.20     0.07  -0.06  -0.22
  12   1     0.09  -0.12   0.02     0.21  -0.27  -0.01    -0.21   0.26   0.02
  13   1    -0.03   0.02   0.06    -0.16   0.11   0.45     0.16  -0.11  -0.45
  14   1     0.20  -0.23   0.01     0.13  -0.14  -0.01    -0.15   0.17   0.01
  15   1     0.02  -0.02  -0.07    -0.04   0.03   0.12     0.01  -0.00  -0.02
  16   1     0.03   0.08  -0.04    -0.05  -0.11   0.05    -0.01  -0.01   0.01
  17   1    -0.03  -0.05   0.02    -0.18  -0.39   0.19    -0.18  -0.39   0.19
  18   1     0.21   0.12   0.18     0.13   0.09   0.10     0.16   0.10   0.12
  19   1     0.09   0.05   0.10     0.24   0.18   0.20     0.25   0.19   0.21
  20   1     0.17   0.48  -0.26    -0.07  -0.19   0.09    -0.08  -0.21   0.10
  21   1    -0.03  -0.02  -0.03    -0.05  -0.04  -0.04    -0.04  -0.03  -0.03
  22   1    -0.00   0.01   0.01     0.03  -0.02  -0.06     0.02  -0.01  -0.04
  23   1    -0.02  -0.05   0.03     0.02   0.05  -0.02     0.01   0.04  -0.02
                     55                     56                     57
                        a                      a                      a 
 Frequencies --  3027.8452              3028.5824              2992.6378
 Red. masses --    99.0000                99.0000                99.0000
 Frc consts  --    99.0000                99.0000                99.0000
 IR Inten    --    99.0000                99.0000                99.0000
 Raman Activ --     0.0000                 0.0000                 0.0000
 Depolar     --     0.0000                 0.0000                 0.0000
 Atom AN      X      Y      Z        X      Y      Z        X      Y      Z
   1   6    -0.12   0.14   0.13     0.10  -0.09  -0.12     0.01  -0.02  -0.01
   2   6    -0.02   0.03   0.02     0.02  -0.02  -0.02    -0.08   0.11  -0.01
   3   6    -0.01   0.01   0.01     0.01  -0.01  -0.01    -0.04   0.03   0.10
   4   6    -0.00  -0.00   0.00    -0.00  -0.00  -0.00     0.00   0.03   0.01
   5   6    -0.00  -0.01  -0.00    -0.01  -0.01   0.00     0.04   0.10  -0.05
   6   6    -0.02  -0.02  -0.01    -0.03  -0.03  -0.01     0.09   0.05   0.08
   7   6    -0.11  -0.15  -0.02    -0.13  -0.18  -0.00    -0.01  -0.02  -0.01
   8   1     0.12  -0.08  -0.48    -0.11   0.08   0.43    -0.01   0.00   0.05
   9   1    -0.02   0.02   0.02    -0.01  -0.06   0.00     0.02   0.02  -0.01
  10   1     0.33  -0.41   0.01    -0.24   0.31  -0.01    -0.06   0.07   0.00
  11   1     0.02  -0.01  -0.06    -0.02   0.01   0.06    -0.03   0.03   0.07
  12   1     0.05  -0.07  -0.00    -0.05   0.06   0.00     0.32  -0.41  -0.01
  13   1     0.01  -0.00  -0.02    -0.01   0.01   0.04     0.13  -0.09  -0.38
  14   1     0.01  -0.01   0.00    -0.01   0.01  -0.00    -0.00   0.00   0.01
  15   1     0.00  -0.00  -0.01    -0.00   0.00   0.01     0.03  -0.01  -0.07
  16   1     0.00   0.01  -0.00     0.00   0.01  -0.01    -0.03  -0.06   0.04
  17   1     0.01   0.01  -0.01     0.02   0.04  -0.02    -0.16  -0.35   0.18
  18   1     0.01   0.01   0.01     0.01   0.01   0.01     0.01   0.02  -0.00
  19   1     0.05   0.04   0.04     0.06   0.05   0.06    -0.34  -0.25  -0.30
  20   1     0.01   0.04  -0.02     0.02   0.06  -0.03     0.03   0.06  -0.02
  21   1     0.30   0.20   0.26     0.32   0.21   0.30     0.06   0.04   0.05
  22   1    -0.02  -0.02   0.01    -0.00  -0.04  -0.04    -0.01   0.00   0.02
  23   1     0.11   0.34  -0.20     0.15   0.45  -0.25     0.01   0.04  -0.03
                     58                     59                     60
                        a                      a                      a 
 Frequencies --  2986.2480              2975.5537              3031.0414
 Red. masses --    99.0000                99.0000                99.0000
 Frc consts  --    99.0000                99.0000                99.0000
 IR Inten    --    99.0000                99.0000                99.0000
 Raman Activ --     0.0000                 0.0000                 0.0000
 Depolar     --     0.0000                 0.0000                 0.0000
 Atom AN      X      Y      Z        X      Y      Z        X      Y      Z
   1   6    -0.01   0.02   0.01    -0.01   0.01   0.01     0.02   0.12  -0.11
   2   6     0.08  -0.11   0.02     0.01  -0.01  -0.07    -0.01   0.01  -0.02
   3   6     0.03  -0.01  -0.09     0.05  -0.07   0.01    -0.00   0.00  -0.01
   4   6     0.02   0.02  -0.03    -0.01  -0.15  -0.07     0.00   0.00  -0.01
   5   6     0.03   0.08  -0.05    -0.05  -0.03  -0.05    -0.00   0.01  -0.01
   6   6     0.09   0.05   0.09    -0.02  -0.05   0.03    -0.01   0.01  -0.03
   7   6    -0.01  -0.02  -0.01     0.01   0.01   0.00     0.02   0.01  -0.23
   8   1     0.01  -0.00  -0.03     0.01  -0.00  -0.03    -0.08   0.08   0.29
   9   1    -0.01  -0.02   0.01     0.00   0.01  -0.00    -0.18  -0.30   0.14
  10   1     0.04  -0.05  -0.00     0.02  -0.02   0.00     0.18  -0.20  -0.02
  11   1     0.04  -0.04  -0.10    -0.07   0.05   0.25    -0.02   0.01   0.05
  12   1    -0.33   0.43   0.02     0.02  -0.03  -0.01     0.04  -0.05  -0.00
  13   1    -0.13   0.08   0.35     0.02  -0.02  -0.03    -0.02   0.01   0.05
  14   1     0.04  -0.04  -0.01    -0.21   0.24  -0.01     0.02  -0.03  -0.00
  15   1    -0.03   0.02   0.07    -0.19   0.10   0.51    -0.01   0.00   0.02
  16   1    -0.03  -0.07   0.03     0.21   0.44  -0.24    -0.01  -0.01   0.01
  17   1    -0.15  -0.34   0.17    -0.02  -0.03   0.01    -0.03  -0.05   0.03
  18   1     0.05   0.04   0.03     0.22   0.13   0.19     0.03   0.02   0.03
  19   1    -0.35  -0.25  -0.30    -0.03  -0.02  -0.02     0.06   0.05   0.05
  20   1     0.04   0.08  -0.03     0.08   0.21  -0.12    -0.03  -0.06   0.03
  21   1     0.04   0.03   0.04    -0.02  -0.01  -0.02     0.27   0.19   0.19
  22   1    -0.01   0.00   0.02    -0.00   0.00   0.01    -0.22   0.12   0.44
  23   1     0.01   0.03  -0.02    -0.01  -0.02   0.01    -0.12  -0.36   0.16
                     61                     62                     63
                        a                      a                      a 
 Frequencies --  3030.4404              3036.2007              3036.7970
 Red. masses --    99.0000                99.0000                99.0000
 Frc consts  --    99.0000                99.0000                99.0000
 IR Inten    --    99.0000                99.0000                99.0000
 Raman Activ --     0.0000                 0.0000                 0.0000
 Depolar     --     0.0000                 0.0000                 0.0000
 Atom AN      X      Y      Z        X      Y      Z        X      Y      Z
   1   6     0.01   0.18  -0.14    -0.10  -0.06  -0.03     0.08   0.05   0.02
   2   6    -0.01   0.02  -0.02    -0.00  -0.00  -0.00     0.00   0.00   0.00
   3   6    -0.00   0.01  -0.01    -0.00   0.00  -0.00     0.00  -0.00   0.00
   4   6     0.00   0.00  -0.00     0.00   0.00  -0.00     0.00  -0.00  -0.00
   5   6     0.00  -0.00   0.01     0.00   0.00  -0.00    -0.00   0.00  -0.00
   6   6     0.01   0.00   0.02    -0.00   0.00  -0.00    -0.00   0.00  -0.00
   7   6    -0.00   0.01   0.17    -0.07   0.05   0.02    -0.10   0.07   0.03
   8   1    -0.09   0.10   0.33    -0.11   0.07   0.37     0.08  -0.05  -0.28
   9   1    -0.24  -0.40   0.19     0.25   0.46  -0.23    -0.19  -0.35   0.18
  10   1     0.29  -0.33  -0.03     0.22  -0.30  -0.01    -0.17   0.23   0.01
  11   1    -0.02   0.01   0.05    -0.00   0.00   0.01     0.00  -0.00  -0.00
  12   1     0.06  -0.07  -0.00     0.00  -0.00  -0.00    -0.00   0.00   0.00
  13   1    -0.01   0.01   0.03    -0.00   0.00   0.01     0.00  -0.00  -0.01
  14   1     0.03  -0.03  -0.00     0.00  -0.01  -0.00    -0.00   0.01   0.00
  15   1     0.00   0.00  -0.00    -0.00   0.00   0.00    -0.00   0.00   0.00
  16   1    -0.00  -0.01   0.00    -0.00  -0.00   0.00     0.00   0.00  -0.00
  17   1     0.01   0.02  -0.01    -0.00  -0.01   0.00    -0.00  -0.01   0.00
  18   1    -0.02  -0.01  -0.02     0.00   0.00   0.00     0.01   0.00   0.01
  19   1    -0.04  -0.03  -0.04     0.00   0.00   0.00     0.00   0.00   0.00
  20   1     0.01   0.03  -0.01    -0.00  -0.00   0.00    -0.00  -0.00   0.00
  21   1    -0.24  -0.16  -0.18     0.18   0.14   0.17     0.24   0.18   0.22
  22   1     0.16  -0.09  -0.32     0.18  -0.09  -0.39     0.23  -0.12  -0.51
  23   1     0.08   0.22  -0.09    -0.10  -0.24   0.14    -0.12  -0.32   0.18
