      -----------------------------------------------------------      
     |                   =====================                   |     
     |                           x T B                           |     
     |                   =====================                   |     
     |                         S. Grimme                         |     
     |          Mulliken Center for Theoretical Chemistry        |     
     |                    University of Bonn                     |     
      -----------------------------------------------------------      

   * xtb version 6.6.1 (8d0f1dd) compiled by 'stahn@M-Bot' on 2023-08-01

   xtb is free software: you can redistribute it and/or modify it under
   the terms of the GNU Lesser General Public License as published by
   the Free Software Foundation, either version 3 of the License, or
   (at your option) any later version.
   
   xtb is distributed in the hope that it will be useful,
   but WITHOUT ANY WARRANTY; without even the implied warranty of
   MERCHANTABILITY or FITNESS FOR A PARTICULAR PURPOSE.  See the
   GNU Lesser General Public License for more details.
   
   Cite this work as:
   * C. Bannwarth, E. Caldeweyher, S. Ehlert, A. Hansen, P. Pracht,
     J. Seibert, S. Spicher, S. Grimme, WIREs Comput. Mol. Sci., 2020, 11,
     e01493. DOI: 10.1002/wcms.1493
   
   for GFN2-xTB:
   * C. Bannwarth, S. Ehlert and S. Grimme., J. Chem. Theory Comput., 2019,
     15, 1652-1671. DOI: 10.1021/acs.jctc.8b01176
   for GFN1-xTB:
   * S. Grimme, C. Bannwarth, P. Shushkov, J. Chem. Theory Comput., 2017,
     13, 1989-2009. DOI: 10.1021/acs.jctc.7b00118
   for GFN0-xTB:
   * P. Pracht, E. Caldeweyher, S. Ehlert, S. Grimme, ChemRxiv, 2019, preprint.
     DOI: 10.26434/chemrxiv.8326202.v1
   for GFN-FF:
   * S. Spicher and S. Grimme, Angew. Chem. Int. Ed., 2020, 59, 15665-15673.
     DOI: 10.1002/anie.202004239
   
   for ALPB and GBSA implicit solvation:
   * S. Ehlert, M. Stahn, S. Spicher, S. Grimme, J. Chem. Theory Comput.,
     2021, 17, 4250-4261. DOI: 10.1021/acs.jctc.1c00471
   
   for DFT-D4:
   * E. Caldeweyher, C. Bannwarth and S. Grimme, J. Chem. Phys., 2017,
     147, 034112. DOI: 10.1063/1.4993215
   * E. Caldeweyher, S. Ehlert, A. Hansen, H. Neugebauer, S. Spicher,
     C. Bannwarth and S. Grimme, J. Chem. Phys., 2019, 150, 154122.
     DOI: 10.1063/1.5090222
   * E. Caldeweyher, J.-M. Mewes, S. Ehlert and S. Grimme, Phys. Chem. Chem. Phys.
     2020, 22, 8499-8512. DOI: 10.1039/D0CP00502A
   
   for sTDA-xTB:
   * S. Grimme and C. Bannwarth, J. Chem. Phys., 2016, 145, 054103.
     DOI: 10.1063/1.4959605
   
   in the mass-spec context:
   * V. Asgeirsson, C. Bauer and S. Grimme, Chem. Sci., 2017, 8, 4879.
     DOI: 10.1039/c7sc00601b
   * J. Koopman and S. Grimme, ACS Omega 2019, 4, 12, 15120-15133.
     DOI: 10.1021/acsomega.9b02011
   
   for metadynamics refer to:
   * S. Grimme, J. Chem. Theory Comput., 2019, 155, 2847-2862
     DOI: 10.1021/acs.jctc.9b00143
   
   for SPH calculations refer to:
   * S. Spicher and S. Grimme, J. Chem. Theory Comput., 2021, 17, 1701-1714
     DOI: 10.1021/acs.jctc.0c01306
   
   with help from (in alphabetical order)
   P. Atkinson, C. Bannwarth, F. Bohle, G. Brandenburg, E. Caldeweyher
   M. Checinski, S. Dohm, S. Ehlert, S. Ehrlich, I. Gerasimov, C. Hölzer
   A. Katbashev, J. Koopman, C. Lavigne, S. Lehtola, F. März, M. Müller,
   F. Musil, H. Neugebauer, J. Pisarek, C. Plett, P. Pracht, F. Pultar,
   J. Seibert, P. Shushkov, S. Spicher, M. Stahn, M. Steiner, T. Strunk,
   J. Stückrath, T. Rose, and J. Unsleber
   
 * started run on 2024/04/20 at 10:59:01.766     

           -------------------------------------------------
          |                Calculation Setup                |
           -------------------------------------------------

          program call               : xtb folded.xyz --gfn 2 --ohess -P 4
          coordinate file            : folded.xyz
          omp threads                :                     4

   ID    Z sym.   atoms
    1    6 C      1-7
    2    1 H      8-23

           -------------------------------------------------
          |                 G F N 2 - x T B                 |
           -------------------------------------------------

        Reference                      10.1021/acs.jctc.8b01176
      * Hamiltonian:
        H0-scaling (s, p, d)           1.850000    2.230000    2.230000
        zeta-weighting                 0.500000
      * Dispersion:
        s8                             2.700000
        a1                             0.520000
        a2                             5.000000
        s9                             5.000000
      * Repulsion:
        kExp                           1.500000    1.000000
        rExp                           1.000000
      * Coulomb:
        alpha                          2.000000
        third order                    shell-resolved
        anisotropic                    true
        a3                             3.000000
        a5                             4.000000
        cn-shift                       1.200000
        cn-exp                         4.000000
        max-rad                        5.000000


          ...................................................
          :                      SETUP                      :
          :.................................................:
          :  # basis functions                  44          :
          :  # atomic orbitals                  44          :
          :  # shells                           30          :
          :  # electrons                        44          :
          :  max. iterations                   250          :
          :  Hamiltonian                  GFN2-xTB          :
          :  restarted?                      false          :
          :  GBSA solvation                  false          :
          :  PC potential                    false          :
          :  electronic temp.          300.0000000     K    :
          :  accuracy                    1.0000000          :
          :  -> integral cutoff          0.2500000E+02      :
          :  -> integral neglect         0.1000000E-07      :
          :  -> SCF convergence          0.1000000E-05 Eh   :
          :  -> wf. convergence          0.1000000E-03 e    :
          :  Broyden damping             0.4000000          :
          ...................................................

 iter      E             dE          RMSdq      gap      omega  full diag
   1    -23.4315872 -0.234316E+02  0.243E+00   13.38       0.0  T
   2    -23.4944740 -0.628868E-01  0.123E+00   13.09       1.0  T
   3    -23.4951804 -0.706361E-03  0.667E-01   13.07       1.0  T
   4    -23.4953653 -0.184946E-03  0.880E-02   13.07       1.0  T
   5    -23.4953770 -0.116639E-04  0.485E-02   13.07       1.0  T
   6    -23.4953777 -0.702446E-06  0.279E-03   13.07       7.5  T
   7    -23.4953777 -0.374111E-07  0.124E-03   13.07      16.8  T
   8    -23.4953778 -0.339369E-08  0.232E-04   13.07      89.9  T
   9    -23.4953778 -0.433644E-10  0.827E-05   13.07     252.0  T

   *** convergence criteria satisfied after 9 iterations ***

         #    Occupation            Energy/Eh            Energy/eV
      -------------------------------------------------------------
         1        2.0000           -0.6210876             -16.9007
       ...           ...                  ...                  ...
        16        2.0000           -0.4507730             -12.2662
        17        2.0000           -0.4434547             -12.0670
        18        2.0000           -0.4301087             -11.7039
        19        2.0000           -0.4281640             -11.6509
        20        2.0000           -0.4201121             -11.4318
        21        2.0000           -0.4154066             -11.3038
        22        2.0000           -0.4095876             -11.1454 (HOMO)
        23                          0.0708032               1.9267 (LUMO)
        24                          0.0750893               2.0433
        25                          0.0997029               2.7131
        26                          0.1175762               3.1994
        27                          0.1192739               3.2456
       ...                                ...                  ...
        44                          0.3033316               8.2541
      -------------------------------------------------------------
                  HL-Gap            0.4803907 Eh           13.0721 eV
             Fermi-level           -0.1693922 Eh           -4.6094 eV

 SCC (total)                   0 d,  0 h,  0 min,  0.010 sec
 SCC setup                      ...        0 min,  0.000 sec (  4.132%)
 Dispersion                     ...        0 min,  0.000 sec (  1.537%)
 classical contributions        ...        0 min,  0.000 sec (  0.322%)
 integral evaluation            ...        0 min,  0.001 sec (  6.998%)
 iterations                     ...        0 min,  0.006 sec ( 62.726%)
 molecular gradient             ...        0 min,  0.002 sec ( 18.388%)
 printout                       ...        0 min,  0.001 sec (  5.585%)

         :::::::::::::::::::::::::::::::::::::::::::::::::::::
         ::                     SUMMARY                     ::
         :::::::::::::::::::::::::::::::::::::::::::::::::::::
         :: total energy             -23.154910954222 Eh    ::
         :: gradient norm              0.024692571232 Eh/a0 ::
         :: HOMO-LUMO gap             13.072097563074 eV    ::
         ::.................................................::
         :: SCC energy               -23.495377750273 Eh    ::
         :: -> isotropic ES            0.004103185986 Eh    ::
         :: -> anisotropic ES          0.008124434106 Eh    ::
         :: -> anisotropic XC          0.014317876012 Eh    ::
         :: -> dispersion             -0.013480442985 Eh    ::
         :: repulsion energy           0.340407910140 Eh    ::
         :: add. restraining           0.000000000000 Eh    ::
         :: total charge               0.000000000000 e     ::
         :::::::::::::::::::::::::::::::::::::::::::::::::::::

      ----------------------------------------------------------- 
     |                   =====================                   |
     |                        A N C O P T                        |
     |                   =====================                   |
     |               Approximate Normal Coordinate               |
     |                Rational Function Optimizer                |
      ----------------------------------------------------------- 

          ...................................................
          :                      SETUP                      :
          :.................................................:
          :   optimization level            normal          :
          :   max. optcycles                   200          :
          :   ANC micro-cycles                  20          :
          :   degrees of freedom                63          :
          :.................................................:
          :   RF solver                   davidson          :
          :   write xtbopt.log                true          :
          :   linear?                        false          :
          :   energy convergence         0.5000000E-05 Eh   :
          :   grad. convergence          0.1000000E-02 Eh/α :
          :   maxmium RF displ.          2.0000000          :
          :   Hlow (freq-cutoff)         0.2000000E-01      :
          :   Hmax (freq-cutoff)         5.0000000          :
          :   S6 in model hess.         70.0000000          :
          ...................................................

generating ANC from model Hessian ...
Using Lindh-Hessian (1995)
 Shifting diagonal of input Hessian by   1.810189219360723E-002
 Lowest  eigenvalues of input Hessian
    0.000000    0.000000    0.000000    0.000000    0.000000    0.000000
    0.020000    0.022318    0.022765    0.026196    0.026921    0.030825
    0.031218    0.032682    0.034339    0.038700    0.047997    0.061945
 Highest eigenvalues
    1.182466    1.214086    1.220084    1.231158    1.291176    1.312479
 

........................................................................
.............................. CYCLE    1 ..............................
........................................................................

 iter      E             dE          RMSdq      gap      omega  full diag
   1    -23.4953778 -0.234954E+02  0.146E-05   13.07       0.0  T
   2    -23.4953778 -0.742517E-12  0.776E-06   13.07    2686.5  T
   3    -23.4953778 -0.568434E-13  0.352E-06   13.07    5925.4  T
     SCC iter.                  ...        0 min,  0.002 sec
     gradient                   ...        0 min,  0.002 sec
 * total energy  :   -23.1549110 Eh     change       -0.1120881E-10 Eh
   gradient norm :     0.0246923 Eh/α   predicted     0.0000000E+00 (-100.00%)
   displ. norm   :     0.1455118 α      lambda       -0.2026630E-02
   maximum displ.:     0.0846495 α      in ANC's #27, #15, #17, ...

........................................................................
.............................. CYCLE    2 ..............................
........................................................................

 iter      E             dE          RMSdq      gap      omega  full diag
   1    -23.5026554 -0.235027E+02  0.133E-01   13.27       0.0  T
   2    -23.5026583 -0.291836E-05  0.770E-02   13.28       1.0  T
   3    -23.5026588 -0.445619E-06  0.364E-03   13.28       5.7  T
   4    -23.5026588 -0.259549E-07  0.125E-03   13.28      16.7  T
   5    -23.5026588 -0.158930E-08  0.637E-04   13.28      32.8  T
   6    -23.5026588 -0.409297E-09  0.606E-05   13.28     343.9  T
     SCC iter.                  ...        0 min,  0.003 sec
     gradient                   ...        0 min,  0.002 sec
 * total energy  :   -23.1562213 Eh     change       -0.1310319E-02 Eh
   gradient norm :     0.0108860 Eh/α   predicted    -0.1034772E-02 ( -21.03%)
   displ. norm   :     0.0669200 α      lambda       -0.3234000E-03
   maximum displ.:     0.0363003 α      in ANC's #27, #15, #11, ...

........................................................................
.............................. CYCLE    3 ..............................
........................................................................

 iter      E             dE          RMSdq      gap      omega  full diag
   1    -23.5069925 -0.235070E+02  0.569E-02   13.34       0.0  T
   2    -23.5069941 -0.168952E-05  0.322E-02   13.34       1.0  T
   3    -23.5069942 -0.744997E-07  0.358E-03   13.34       5.8  T
   4    -23.5069942 -0.127045E-07  0.605E-04   13.34      34.5  T
   5    -23.5069942 -0.853952E-09  0.336E-04   13.34      62.1  T
     SCC iter.                  ...        0 min,  0.002 sec
     gradient                   ...        0 min,  0.002 sec
 * total energy  :   -23.1563980 Eh     change       -0.1767688E-03 Eh
   gradient norm :     0.0022909 Eh/α   predicted    -0.1624585E-03 (  -8.10%)
   displ. norm   :     0.0241296 α      lambda       -0.1613421E-04
   maximum displ.:     0.0153777 α      in ANC's #5, #1, #3, ...

........................................................................
.............................. CYCLE    4 ..............................
........................................................................

 iter      E             dE          RMSdq      gap      omega  full diag
   1    -23.5074967 -0.235075E+02  0.644E-03   13.34       0.0  T
   2    -23.5074967 -0.655791E-07  0.370E-03   13.34       5.6  T
   3    -23.5074967 -0.105623E-08  0.870E-04   13.34      24.0  T
   4    -23.5074967 -0.471356E-09  0.122E-04   13.34     171.5  T
     SCC iter.                  ...        0 min,  0.002 sec
     gradient                   ...        0 min,  0.002 sec
 * total energy  :   -23.1564122 Eh     change       -0.1413666E-04 Eh
   gradient norm :     0.0006067 Eh/α   predicted    -0.9149353E-05 ( -35.28%)
   displ. norm   :     0.0796578 α      lambda       -0.2310810E-04
   maximum displ.:     0.0482169 α      in ANC's #5, #1, #3, ...

........................................................................
.............................. CYCLE    5 ..............................
........................................................................

 iter      E             dE          RMSdq      gap      omega  full diag
   1    -23.5077780 -0.235078E+02  0.150E-02   13.33       0.0  T
   2    -23.5077781 -0.115188E-06  0.888E-03   13.33       2.3  T
   3    -23.5077781 -0.795537E-08  0.942E-04   13.33      22.1  T
   4    -23.5077781 -0.240637E-08  0.297E-04   13.33      70.2  T
     SCC iter.                  ...        0 min,  0.002 sec
     gradient                   ...        0 min,  0.002 sec
 * total energy  :   -23.1564298 Eh     change       -0.1762595E-04 Eh
   gradient norm :     0.0027854 Eh/α   predicted    -0.1160918E-04 ( -34.14%)
   displ. norm   :     0.0219405 α      lambda       -0.7943135E-05
   maximum displ.:     0.0148746 α      in ANC's #1, #3, #5, ...

........................................................................
.............................. CYCLE    6 ..............................
........................................................................

 iter      E             dE          RMSdq      gap      omega  full diag
   1    -23.5075345 -0.235075E+02  0.429E-03   13.33       0.0  T
   2    -23.5075345 -0.173234E-07  0.252E-03   13.33       8.3  T
   3    -23.5075345 -0.367432E-09  0.394E-04   13.33      53.0  T
   4    -23.5075345 -0.241680E-09  0.744E-05   13.33     280.1  T
     SCC iter.                  ...        0 min,  0.002 sec
     gradient                   ...        0 min,  0.002 sec
 * total energy  :   -23.1564367 Eh     change       -0.6927372E-05 Eh
   gradient norm :     0.0019136 Eh/α   predicted    -0.3987311E-05 ( -42.44%)
   displ. norm   :     0.1132987 α      lambda       -0.2011935E-04
   maximum displ.:     0.0809768 α      in ANC's #1, #3, #5, ...

........................................................................
.............................. CYCLE    7 ..............................
........................................................................

 iter      E             dE          RMSdq      gap      omega  full diag
   1    -23.5066600 -0.235067E+02  0.216E-02   13.34       0.0  T
   2    -23.5066602 -0.285426E-06  0.128E-02   13.34       1.6  T
   3    -23.5066603 -0.668501E-08  0.143E-03   13.34      14.6  T
   4    -23.5066603 -0.543181E-08  0.344E-04   13.34      60.6  T
   5    -23.5066603 -0.448772E-09  0.165E-04   13.34     126.2  T
     SCC iter.                  ...        0 min,  0.002 sec
     gradient                   ...        0 min,  0.002 sec
 * total energy  :   -23.1564478 Eh     change       -0.1103989E-04 Eh
   gradient norm :     0.0018558 Eh/α   predicted    -0.1011739E-04 (  -8.36%)
   displ. norm   :     0.0142884 α      lambda       -0.4435547E-05
   maximum displ.:     0.0134819 α      in ANC's #5, #8, #11, ...

........................................................................
.............................. CYCLE    8 ..............................
........................................................................

 iter      E             dE          RMSdq      gap      omega  full diag
   1    -23.5070161 -0.235070E+02  0.383E-03   13.34       0.0  T
   2    -23.5070162 -0.226675E-07  0.218E-03   13.34       9.5  T
   3    -23.5070162 -0.392319E-09  0.493E-04   13.34      42.3  T
   4    -23.5070162 -0.189466E-09  0.722E-05   13.34     288.7  T
     SCC iter.                  ...        0 min,  0.002 sec
     gradient                   ...        0 min,  0.002 sec
 * total energy  :   -23.1564533 Eh     change       -0.5538008E-05 Eh
   gradient norm :     0.0009432 Eh/α   predicted    -0.2218752E-05 ( -59.94%)
   displ. norm   :     0.0783602 α      lambda       -0.1287797E-04
   maximum displ.:     0.0516834 α      in ANC's #1, #5, #3, ...

........................................................................
.............................. CYCLE    9 ..............................
........................................................................

 iter      E             dE          RMSdq      gap      omega  full diag
   1    -23.5074719 -0.235075E+02  0.186E-02   13.34       0.0  T
   2    -23.5074720 -0.688306E-07  0.110E-02   13.34       1.9  T
   3    -23.5074720 -0.443532E-08  0.576E-04   13.34      36.2  T
   4    -23.5074720 -0.105716E-08  0.212E-04   13.34      98.2  T
     SCC iter.                  ...        0 min,  0.002 sec
     gradient                   ...        0 min,  0.002 sec
 * total energy  :   -23.1564672 Eh     change       -0.1388145E-04 Eh
   gradient norm :     0.0008254 Eh/α   predicted    -0.6460622E-05 ( -53.46%)
   displ. norm   :     0.1313932 α      lambda       -0.1080617E-04
   maximum displ.:     0.0969718 α      in ANC's #1, #3, #5, ...

........................................................................
.............................. CYCLE   10 ..............................
........................................................................

 iter      E             dE          RMSdq      gap      omega  full diag
   1    -23.5075263 -0.235075E+02  0.286E-02   13.33       0.0  T
   2    -23.5075263 -0.267266E-07  0.169E-02   13.33       1.2  T
   3    -23.5075263 -0.103034E-07  0.534E-04   13.33      39.0  T
   4    -23.5075263 -0.160810E-09  0.208E-04   13.33     100.3  T
     SCC iter.                  ...        0 min,  0.002 sec
     gradient                   ...        0 min,  0.002 sec
 * total energy  :   -23.1564784 Eh     change       -0.1124150E-04 Eh
   gradient norm :     0.0013298 Eh/α   predicted    -0.5446002E-05 ( -51.55%)
   displ. norm   :     0.0916999 α      lambda       -0.4855948E-05
   maximum displ.:     0.0696789 α      in ANC's #1, #3, #5, ...

........................................................................
.............................. CYCLE   11 ..............................
........................................................................

 iter      E             dE          RMSdq      gap      omega  full diag
   1    -23.5073377 -0.235073E+02  0.192E-02   13.33       0.0  T
   2    -23.5073377 -0.203571E-07  0.114E-02   13.33       1.8  T
   3    -23.5073377 -0.452681E-08  0.386E-04   13.33      54.0  T
   4    -23.5073377 -0.341728E-09  0.196E-04   13.33     106.2  T
     SCC iter.                  ...        0 min,  0.002 sec
     gradient                   ...        0 min,  0.002 sec
 * total energy  :   -23.1564835 Eh     change       -0.5055841E-05 Eh
   gradient norm :     0.0006700 Eh/α   predicted    -0.2438886E-05 ( -51.76%)
   displ. norm   :     0.0440903 α      lambda       -0.1653538E-05
   maximum displ.:     0.0341180 α      in ANC's #1, #3, #2, ...

........................................................................
.............................. CYCLE   12 ..............................
........................................................................

 iter      E             dE          RMSdq      gap      omega  full diag
   1    -23.5072610 -0.235073E+02  0.851E-03   13.34       0.0  T
   2    -23.5072610 -0.837121E-08  0.505E-03   13.34       4.1  T
   3    -23.5072610 -0.932470E-09  0.217E-04   13.34      96.2  T
   4    -23.5072610 -0.208505E-09  0.999E-05   13.34     208.8  T
     SCC iter.                  ...        0 min,  0.002 sec
     gradient                   ...        0 min,  0.002 sec
 * total energy  :   -23.1564852 Eh     change       -0.1702778E-05 Eh
   gradient norm :     0.0001234 Eh/α   predicted    -0.8279963E-06 ( -51.37%)
   displ. norm   :     0.0256529 α      lambda       -0.7073467E-06
   maximum displ.:     0.0194477 α      in ANC's #1, #3, #8, ...

   *** GEOMETRY OPTIMIZATION CONVERGED AFTER 12 ITERATIONS ***

------------------------------------------------------------------------
 total energy gain   :        -0.0015742 Eh       -0.9878 kcal/mol
 total RMSD          :         0.1263752 a0        0.0669 Å
 total power (kW/mol):        -0.3444298 (step)  -58.3525 (real)
------------------------------------------------------------------------

 ANCopt (total)                0 d,  0 h,  0 min,  0.071 sec
 optimizer setup                ...        0 min,  0.000 sec (  0.588%)
 model hessian                  ...        0 min,  0.010 sec ( 13.960%)
 ANC generation                 ...        0 min,  0.001 sec (  1.094%)
 coordinate transformation      ...        0 min,  0.000 sec (  0.198%)
 single point calculation       ...        0 min,  0.055 sec ( 78.136%)
 optimization log               ...        0 min,  0.001 sec (  1.725%)
 hessian update                 ...        0 min,  0.001 sec (  0.740%)
 rational function              ...        0 min,  0.001 sec (  1.374%)

================
 final structure:
================
23
 xtb: 6.6.1 (8d0f1dd)
C           -3.11416206244006       -0.71916603847072       -0.48677920923359
C           -1.86324826266086       -0.39253381699850        0.32023482297475
C           -1.13222803787820        0.82312527100431       -0.24490954248770
C            0.05202763077861        1.27705835382470        0.61019054909961
C            1.17615630365450        0.25022613466110        0.75782228722346
C            1.83964334690011       -0.12341007967110       -0.56578636980991
C            3.04555375533427       -1.03047519590692       -0.35188991656718
H           -2.85485434813560       -0.93226403647513       -1.52183675102719
H           -3.62100768059742       -1.58874978182785       -0.07440362257673
H           -3.80732462672780        0.11947803643187       -0.47509302653012
H           -2.14208891120215       -0.19455962834900        1.35799296121098
H           -1.20044184605786       -1.25923306615061        0.31232352484208
H           -0.79349674957473        0.60316391842677       -1.25880365664230
H           -1.83930166798051        1.65431595219749       -0.31331167756174
H           -0.31538362768585        1.53294124717913        1.60753297139615
H            0.46702641572460        2.18760685926557        0.16990624841302
H            0.79302309720895       -0.65152485127353        1.23861880172366
H            1.93570378902134        0.67264067052057        1.42126194384311
H            1.12131018686023       -0.63515309389374       -1.20813588206523
H            2.15710841350751        0.78756962772060       -1.07883854982688
H            3.78807307021169       -0.53899457267065        0.27341390706680
H            3.51023800670745       -1.28189685914768       -1.30264782429125
H            2.74548480503183       -1.95450305039672        0.13808001082619
           -------------------------------------------------
          |                Final Singlepoint                |
           -------------------------------------------------

          ...................................................
          :                      SETUP                      :
          :.................................................:
          :  # basis functions                  44          :
          :  # atomic orbitals                  44          :
          :  # shells                           30          :
          :  # electrons                        44          :
          :  max. iterations                   250          :
          :  Hamiltonian                  GFN2-xTB          :
          :  restarted?                      false          :
          :  GBSA solvation                  false          :
          :  PC potential                    false          :
          :  electronic temp.          300.0000000     K    :
          :  accuracy                    1.0000000          :
          :  -> integral cutoff          0.2500000E+02      :
          :  -> integral neglect         0.1000000E-07      :
          :  -> SCF convergence          0.1000000E-05 Eh   :
          :  -> wf. convergence          0.1000000E-03 e    :
          :  Broyden damping             0.4000000          :
          ...................................................

 iter      E             dE          RMSdq      gap      omega  full diag
   1    -23.5072610 -0.235073E+02  0.402E-05   13.34       0.0  T
   2    -23.5072610 -0.144951E-11  0.231E-05   13.34     903.0  T
   3    -23.5072610 -0.284217E-13  0.549E-06   13.34    3800.4  T

   *** convergence criteria satisfied after 3 iterations ***

         #    Occupation            Energy/Eh            Energy/eV
      -------------------------------------------------------------
         1        2.0000           -0.6218797             -16.9222
       ...           ...                  ...                  ...
        16        2.0000           -0.4513837             -12.2828
        17        2.0000           -0.4425472             -12.0423
        18        2.0000           -0.4292731             -11.6811
        19        2.0000           -0.4277829             -11.6406
        20        2.0000           -0.4195746             -11.4172
        21        2.0000           -0.4155792             -11.3085
        22        2.0000           -0.4115815             -11.1997 (HOMO)
        23                          0.0785068               2.1363 (LUMO)
        24                          0.0826009               2.2477
        25                          0.1090088               2.9663
        26                          0.1225926               3.3359
        27                          0.1273644               3.4658
       ...                                ...                  ...
        44                          0.3157276               8.5914
      -------------------------------------------------------------
                  HL-Gap            0.4900882 Eh           13.3360 eV
             Fermi-level           -0.1665373 Eh           -4.5317 eV

 SCC (total)                   0 d,  0 h,  0 min,  0.004 sec
 SCC setup                      ...        0 min,  0.000 sec (  6.279%)
 Dispersion                     ...        0 min,  0.000 sec (  1.311%)
 classical contributions        ...        0 min,  0.000 sec (  1.603%)
 integral evaluation            ...        0 min,  0.000 sec ( 10.955%)
 iterations                     ...        0 min,  0.002 sec ( 34.345%)
 molecular gradient             ...        0 min,  0.002 sec ( 36.797%)
 printout                       ...        0 min,  0.000 sec (  8.126%)

         :::::::::::::::::::::::::::::::::::::::::::::::::::::
         ::                     SUMMARY                     ::
         :::::::::::::::::::::::::::::::::::::::::::::::::::::
         :: total energy             -23.156485190986 Eh    ::
         :: gradient norm              0.000123465237 Eh/a0 ::
         :: HOMO-LUMO gap             13.335980051801 eV    ::
         ::.................................................::
         :: SCC energy               -23.507261013023 Eh    ::
         :: -> isotropic ES            0.004374335887 Eh    ::
         :: -> anisotropic ES          0.007728851030 Eh    ::
         :: -> anisotropic XC          0.014448127917 Eh    ::
         :: -> dispersion             -0.013474446442 Eh    ::
         :: repulsion energy           0.350723151500 Eh    ::
         :: add. restraining           0.000000000000 Eh    ::
         :: total charge              -0.000000000000 e     ::
         :::::::::::::::::::::::::::::::::::::::::::::::::::::

           ------------------------------------------------- 
          |                Numerical Hessian                |
           ------------------------------------------------- 
step length          :   0.00500
SCC accuracy         :   0.30000
Hessian scale factor :   1.00000
frozen atoms in %    :   0.00000    0
RMS gradient         :   0.00012
estimated CPU  time      0.07 min
estimated wall time      0.03 min

writing file <hessian>.

 projected vibrational frequencies (cm⁻¹)
eigval :       -0.00     0.00     0.00     0.00     0.00     0.00
eigval :       46.45    69.02    73.41   184.69   208.87   234.70
eigval :      242.60   293.41   302.69   429.79   504.53   757.46
eigval :      789.47   827.81   881.50   907.93   915.77   962.41
eigval :      996.97  1061.25  1068.47  1087.69  1098.12  1146.57
eigval :     1158.43  1161.82  1224.99  1237.50  1268.51  1282.54
eigval :     1289.40  1301.38  1317.05  1363.48  1372.71  1375.75
eigval :     1416.73  1416.94  1489.90  1492.66  1500.26  1501.30
eigval :     1503.77  1505.77  1506.04  1508.60  1509.03  2954.98
eigval :     2956.11  2958.44  2967.71  2970.28  2975.55  2986.25
eigval :     2987.99  2992.64  2995.74  3027.85  3028.58  3030.44
eigval :     3031.04  3036.20  3036.80
           -------------------------------------------------
          |                Property Printout                |
           -------------------------------------------------

    * Orbital Energies and Occupations

         #    Occupation            Energy/Eh            Energy/eV
      -------------------------------------------------------------
         1        2.0000           -0.6218797             -16.9222
       ...           ...                  ...                  ...
        10        2.0000           -0.4956370             -13.4870
        11        2.0000           -0.4875878             -13.2679
        12        2.0000           -0.4874151             -13.2632
        13        2.0000           -0.4778069             -13.0018
        14        2.0000           -0.4560982             -12.4111
        15        2.0000           -0.4545218             -12.3682
        16        2.0000           -0.4513837             -12.2828
        17        2.0000           -0.4425472             -12.0423
        18        2.0000           -0.4292731             -11.6811
        19        2.0000           -0.4277829             -11.6406
        20        2.0000           -0.4195746             -11.4172
        21        2.0000           -0.4155792             -11.3085
        22        2.0000           -0.4115815             -11.1997 (HOMO)
        23                          0.0785068               2.1363 (LUMO)
        24                          0.0826009               2.2477
        25                          0.1090088               2.9663
        26                          0.1225926               3.3359
        27                          0.1273644               3.4658
        28                          0.1347221               3.6660
        29                          0.1498832               4.0785
        30                          0.1583861               4.3099
        31                          0.1728696               4.7040
        32                          0.1785484               4.8585
        33                          0.1856041               5.0505
       ...                                ...                  ...
        44                          0.3157276               8.5914
      -------------------------------------------------------------
                  HL-Gap            0.4900882 Eh           13.3360 eV
             Fermi-level           -0.1665373 Eh           -4.5317 eV

     #   Z          covCN         q      C6AA      α(0)
     1   6 C        3.752    -0.102    22.502     6.765
     2   6 C        3.800    -0.053    21.517     6.604
     3   6 C        3.802    -0.059    21.628     6.621
     4   6 C        3.801    -0.058    21.616     6.619
     5   6 C        3.802    -0.059    21.628     6.621
     6   6 C        3.800    -0.053    21.517     6.604
     7   6 C        3.752    -0.102    22.502     6.765
     8   1 H        0.925     0.032     2.559     2.502
     9   1 H        0.925     0.032     2.565     2.504
    10   1 H        0.925     0.032     2.563     2.503
    11   1 H        0.924     0.028     2.616     2.529
    12   1 H        0.924     0.032     2.563     2.504
    13   1 H        0.924     0.031     2.567     2.505
    14   1 H        0.924     0.028     2.616     2.529
    15   1 H        0.924     0.028     2.619     2.531
    16   1 H        0.924     0.028     2.619     2.531
    17   1 H        0.924     0.031     2.568     2.506
    18   1 H        0.924     0.028     2.616     2.529
    19   1 H        0.924     0.032     2.563     2.504
    20   1 H        0.924     0.028     2.616     2.529
    21   1 H        0.925     0.032     2.562     2.503
    22   1 H        0.925     0.032     2.564     2.504
    23   1 H        0.925     0.032     2.559     2.502

 Mol. C6AA /au·bohr⁶  :       3403.646160
 Mol. C8AA /au·bohr⁸  :      70212.301409
 Mol. α(0) /au        :         86.816712


Wiberg/Mayer (AO) data.
largest (>0.10) Wiberg bond orders for each atom

 ---------------------------------------------------------------------------
     #   Z sym  total        # sym  WBO       # sym  WBO       # sym  WBO
 ---------------------------------------------------------------------------
     1   6 C    3.997 --     2 C    1.019     8 H    0.988    10 H    0.988
                             9 H    0.988
     2   6 C    3.998 --     1 C    1.019     3 C    1.009    11 H    0.978
                            12 H    0.977
     3   6 C    3.997 --     2 C    1.009     4 C    1.007    14 H    0.977
                            13 H    0.976
     4   6 C    3.998 --     3 C    1.007     5 C    1.007    16 H    0.978
                            15 H    0.978
     5   6 C    3.997 --     6 C    1.009     4 C    1.007    18 H    0.977
                            17 H    0.976
     6   6 C    3.998 --     7 C    1.019     5 C    1.009    20 H    0.978
                            19 H    0.977
     7   6 C    3.997 --     6 C    1.019    23 H    0.988    21 H    0.988
                            22 H    0.988
     8   1 H    0.999 --     1 C    0.988
     9   1 H    0.999 --     1 C    0.988
    10   1 H    0.999 --     1 C    0.988
    11   1 H    0.999 --     2 C    0.978
    12   1 H    0.999 --     2 C    0.977
    13   1 H    0.999 --     3 C    0.976
    14   1 H    0.999 --     3 C    0.977
    15   1 H    0.999 --     4 C    0.978
    16   1 H    0.999 --     4 C    0.978
    17   1 H    0.999 --     5 C    0.976
    18   1 H    0.999 --     5 C    0.977
    19   1 H    0.999 --     6 C    0.977
    20   1 H    0.999 --     6 C    0.978
    21   1 H    0.999 --     7 C    0.988
    22   1 H    0.999 --     7 C    0.988
    23   1 H    0.999 --     7 C    0.988
 ---------------------------------------------------------------------------

Topologies differ in total number of bonds
Writing topology from bond orders to xtbtopo.mol

molecular dipole:
                 x           y           z       tot (Debye)
 q only:       -0.000      -0.009      -0.004
   full:        0.000      -0.006      -0.003       0.016
molecular quadrupole (traceless):
                xx          xy          yy          xz          yz          zz
 q only:       -0.060      -0.042       0.013       0.096      -0.026       0.047
  q+dip:       -0.894       0.270       0.407      -0.459      -0.024       0.487
   full:       -0.431       0.115       0.201      -0.188      -0.008       0.230

           -------------------------------------------------
          |                Geometry Summary                 |
           -------------------------------------------------

      molecular mass/u    :      100.2022033
   center of mass at/Å    :       -0.0001140      -0.0047115      -0.0025209
  moments of inertia/u·Å² :        0.1103534E+03   0.4626092E+03   0.5161789E+03
rotational constants/cm⁻¹ :        0.1527605E+00   0.3644033E-01   0.3265851E-01

 * 22 selected distances

     #   Z          #   Z                                           value/Å
     1   6 C        2   6 C                                       1.5240558
     2   6 C        3   6 C                                       1.5269598
     3   6 C        4   6 C                                       1.5296122
     4   6 C        5   6 C                                       1.5296553 (max)
     5   6 C        6   6 C                                       1.5270099
     6   6 C        7   6 C                                       1.5240535
     1   6 C        8   1 H                                       1.0881156
     1   6 C        9   1 H                                       1.0877142
     1   6 C       10   1 H                                       1.0880878
     2   6 C       11   1 H                                       1.0926518
     2   6 C       12   1 H                                       1.0911199
     3   6 C       13   1 H                                       1.0913768
     3   6 C       14   1 H                                       1.0933939
     4   6 C       15   1 H                                       1.0932334
     4   6 C       16   1 H                                       1.0932397
     5   6 C       17   1 H                                       1.0913805
     5   6 C       18   1 H                                       1.0933887
     6   6 C       19   1 H                                       1.0910988
     6   6 C       20   1 H                                       1.0926531
     7   6 C       21   1 H                                       1.0880686
     7   6 C       22   1 H                                       1.0876972 (min)
     7   6 C       23   1 H                                       1.0880899

 * 2 distinct bonds (by element types)

   Z      Z             #   av. dist./Å        max./Å        min./Å
   1 H    6 C          16     1.0907069     1.0933939     1.0876972
   6 C    6 C           6     1.5268911     1.5296553     1.5240535

           -------------------------------------------------
          |               Frequency Printout                |
           -------------------------------------------------
 projected vibrational frequencies (cm⁻¹)
eigval :       -0.00     0.00     0.00     0.00     0.00     0.00
eigval :       46.45    69.02    73.41   184.69   208.87   234.70
eigval :      242.60   293.41   302.69   429.79   504.53   757.46
eigval :      789.47   827.81   881.50   907.93   915.77   962.41
eigval :      996.97  1061.25  1068.47  1087.69  1098.12  1146.57
eigval :     1158.43  1161.82  1224.99  1237.50  1268.51  1282.54
eigval :     1289.40  1301.38  1317.05  1363.48  1372.71  1375.75
eigval :     1416.73  1416.94  1489.90  1492.66  1500.26  1501.30
eigval :     1503.77  1505.77  1506.04  1508.60  1509.03  2954.98
eigval :     2956.11  2958.44  2967.71  2970.28  2975.55  2986.25
eigval :     2987.99  2992.64  2995.74  3027.85  3028.58  3030.44
eigval :     3031.04  3036.20  3036.80
 reduced masses (amu)
   1:  9.68   2:  9.46   3: 10.11   4:  9.95   5:  9.74   6:  8.82   7:  8.40   8:  6.18
   9:  6.20  10:  7.21  11:  6.51  12:  2.68  13:  3.82  14:  6.51  15:  8.50  16:  8.52
  17:  8.17  18:  2.42  19:  2.23  20:  3.47  21:  7.21  22:  4.82  23:  3.83  24:  3.58
  25:  6.47  26:  3.83  27:  4.54  28:  8.63  29:  8.44  30:  8.38  31:  6.93  32:  7.18
  33:  4.83  34:  4.26  35:  3.21  36:  2.07  37:  1.84  38:  3.92  39:  3.35  40:  4.69
  41:  5.06  42:  5.26  43:  3.16  44:  3.17  45:  1.87  46:  1.96  47:  1.84  48:  1.84
  49:  1.92  50:  1.54  51:  1.55  52:  1.60  53:  1.70  54:  1.95  55:  1.81  56:  1.88
  57:  1.77  58:  1.81  59:  1.57  60:  1.66  61:  1.56  62:  1.69  63:  1.59  64:  1.96
  65:  1.96  66:  1.91  67:  1.91  68:  1.28  69:  1.28
 IR intensities (km·mol⁻¹)
   1:  0.00   2:  0.00   3:  0.00   4:  0.00   5:  0.00   6:  0.00   7:  0.00   8:  0.03
   9:  0.01  10:  0.12  11:  0.00  12:  0.10  13:  0.01  14:  0.72  15:  0.06  16:  0.03
  17:  0.75  18: 12.53  19:  7.63  20:  0.14  21:  0.92  22:  0.43  23:  0.02  24:  9.39
  25:  2.79  26:  0.37  27:  1.22  28:  0.36  29:  0.00  30:  0.43  31:  1.72  32:  0.86
  33:  0.10  34:  0.51  35:  0.00  36:  0.24  37:  0.05  38:  1.14  39:  1.26  40:  3.50
  41:  0.08  42:  0.01  43:  0.37  44:  0.94  45:  0.25  46:  0.57  47:  0.01  48:  0.51
  49:  0.14  50:  2.72  51:  2.25  52:  2.00  53:  0.37  54: 21.44  55:  2.53  56: 31.18
  57:  3.70  58: 51.96  59: 93.28  60: 27.98  61:  0.16  62: 41.96  63:122.43  64: 50.47
  65: 70.57  66: 22.26  67:113.39  68: 45.39  69: 19.88
 Raman intensities (amu)
   1:  0.00   2:  0.00   3:  0.00   4:  0.00   5:  0.00   6:  0.00   7:  0.00   8:  0.00
   9:  0.00  10:  0.00  11:  0.00  12:  0.00  13:  0.00  14:  0.00  15:  0.00  16:  0.00
  17:  0.00  18:  0.00  19:  0.00  20:  0.00  21:  0.00  22:  0.00  23:  0.00  24:  0.00
  25:  0.00  26:  0.00  27:  0.00  28:  0.00  29:  0.00  30:  0.00  31:  0.00  32:  0.00
  33:  0.00  34:  0.00  35:  0.00  36:  0.00  37:  0.00  38:  0.00  39:  0.00  40:  0.00
  41:  0.00  42:  0.00  43:  0.00  44:  0.00  45:  0.00  46:  0.00  47:  0.00  48:  0.00
  49:  0.00  50:  0.00  51:  0.00  52:  0.00  53:  0.00  54:  0.00  55:  0.00  56:  0.00
  57:  0.00  58:  0.00  59:  0.00  60:  0.00  61:  0.00  62:  0.00  63:  0.00  64:  0.00
  65:  0.00  66:  0.00  67:  0.00  68:  0.00  69:  0.00
 output can be read by thermo (or use thermo option).
 writing <g98.out> molden fake output.
 recommended (thermochemical) frequency scaling factor: 1.0
           -------------------------------------------------
          |             Thermodynamic Functions             |
           -------------------------------------------------

Molecule has the following symmetry elements: (C2) 
It seems to be the C2 point group
c2  symmetry found (for desy threshold:  0.10E+00) used in thermo

          ...................................................
          :                      SETUP                      :
          :.................................................:
          :  # frequencies                          63      :
          :  # imaginary freq.                       0      :
          :  linear?                             false      :
          :  only rotor calc.                    false      :
          :  symmetry                               c2      :
          :  rotational number                       2      :
          :  scaling factor                  1.0000000      :
          :  rotor cutoff                   50.0000000 cm⁻¹ :
          :  imag. cutoff                  -20.0000000 cm⁻¹ :
          :.................................................:

    mode    ω/cm⁻¹     T·S(HO)/kcal·mol⁻¹    T·S(FR)/kcal·mol⁻¹   T·S(vib)
   ------------------------------------------------------------------------
       1     46.45    -1.47975 ( 42.69%)    -1.07807 ( 57.31%)    -1.24954
       2     69.02    -1.24660 ( 78.41%)    -0.96085 ( 21.59%)    -1.18490
       3     73.41    -1.21039 ( 82.29%)    -0.94258 ( 17.71%)    -1.16297
       4    184.69    -0.67991 ( 99.47%)    -0.66938 (  0.53%)    -0.67985
       5    208.87    -0.61225 ( 99.67%)    -0.63294 (  0.33%)    -0.61232
       6    234.70    -0.54941 ( 99.79%)    -0.59842 (  0.21%)    -0.54951
       7    242.60    -0.53181 ( 99.82%)    -0.58861 (  0.18%)    -0.53192
       8    293.41    -0.43357 ( 99.92%)    -0.53229 (  0.08%)    -0.43365
   ------------------------------------------------------------------------

   temp. (K)  partition function   enthalpy   heat capacity  entropy
                                   cal/mol     cal/K/mol   cal/K/mol   J/K/mol
 298.15  VIB   873.                 4225.556     26.758     26.493
         ROT  0.196E+06              888.752      2.981     27.198
         INT  0.171E+09             5114.308     29.738     53.691
         TR   0.970E+27             1481.254      4.968     39.706
         TOT                        6595.5622    34.7066    93.3971   390.7736

       T/K    H(0)-H(T)+PV         H(T)/Eh          T*S/Eh         G(T)/Eh
   ------------------------------------------------------------------------
    298.15    0.105107E-01    0.226328E+00    0.443760E-01    0.181952E+00
   ------------------------------------------------------------------------

         :::::::::::::::::::::::::::::::::::::::::::::::::::::
         ::                  THERMODYNAMIC                  ::
         :::::::::::::::::::::::::::::::::::::::::::::::::::::
         :: total free energy         -22.974533385260 Eh   ::
         ::.................................................::
         :: total energy              -23.156485190987 Eh   ::
         :: zero point energy           0.215817096542 Eh   ::
         :: G(RRHO) w/o ZPVE           -0.033865290816 Eh   ::
         :: G(RRHO) contrib.            0.181951805726 Eh   ::
         :::::::::::::::::::::::::::::::::::::::::::::::::::::
 
 normal mode %tage of torsion character
   1:  0.00   2:  0.00   3:  0.00   4:  0.00   5:  0.00   6:  0.00   7:  0.54   8:  0.54
   9:  0.53  10:  0.56  11:  0.28  12:  0.83  13:  0.74  14:  0.55  15:  0.22  16:  0.11
  17:  0.22  18:  0.56  19:  0.46  20:  0.56  21:  0.17  22:  0.34  23:  0.37  24:  0.26
  25:  0.14  26:  0.18  27:  0.33  28:  0.10  29:  0.05  30:  0.08  31:  0.34  32:  0.33
  33:  0.42  34:  0.37  35:  0.11  36:  0.24  37:  0.14  38:  0.12  39:  0.06  40:  0.10
  41:  0.08  42:  0.06  43:  0.00  44:  0.00  45:  0.65  46:  0.65  47:  0.61  48:  0.65
  49:  0.67  50:  0.93  51:  0.90  52:  0.88  53:  0.82  54:  0.23  55:  0.28  56:  0.30
  57:  0.18  58:  0.14  59:  0.01  60:  0.03  61:  0.05  62:  0.03  63:  0.08  64:  0.07
  65:  0.06  66:  0.03  67:  0.03  68:  0.00  69:  0.00
 recommended # of modes for mode following           4

optimized geometry written to: xtbopt.xyz


           -------------------------------------------------
          | TOTAL ENERGY              -23.156485190987 Eh   |
          | TOTAL ENTHALPY            -22.930157397107 Eh   |
          | TOTAL FREE ENERGY         -22.974533385260 Eh   |
          | GRADIENT NORM               0.000123465645 Eh/α |
          | HOMO-LUMO GAP              13.335979951869 eV   |
           -------------------------------------------------

------------------------------------------------------------------------
 * finished run on 2024/04/20 at 10:59:02.459     
------------------------------------------------------------------------
 total:
 * wall-time:     0 d,  0 h,  0 min,  0.693 sec
 *  cpu-time:     0 d,  0 h,  0 min,  1.760 sec
 * ratio c/w:     2.541 speedup
 SCF:
 * wall-time:     0 d,  0 h,  0 min,  0.010 sec
 *  cpu-time:     0 d,  0 h,  0 min,  0.037 sec
 * ratio c/w:     3.696 speedup
 ANC optimizer:
 * wall-time:     0 d,  0 h,  0 min,  0.079 sec
 *  cpu-time:     0 d,  0 h,  0 min,  0.299 sec
 * ratio c/w:     3.807 speedup
 analytical hessian:
 * wall-time:     0 d,  0 h,  0 min,  0.553 sec
 *  cpu-time:     0 d,  0 h,  0 min,  1.324 sec
 * ratio c/w:     2.394 speedup

