23
 energy: -23.154910954233 gnorm: 0.024692338314 xtb: 6.6.1 (8d0f1dd)
C           -3.06773200000000       -0.76784100000000       -0.50060500000000
C           -1.85879700000000       -0.37300600000000        0.33364700000000
C           -1.12937900000000        0.84870700000000       -0.22805100000000
C            0.05331000000000        1.30931000000000        0.62993300000000
C            1.17491600000000        0.27503900000000        0.76934300000000
C            1.83446100000000       -0.10039400000000       -0.55868200000000
C            2.99800000000000       -1.06409200000000       -0.38374900000000
H           -2.77743100000000       -1.01360300000000       -1.52444000000000
H           -3.58582700000000       -1.63723900000000       -0.08814400000000
H           -3.79168100000000        0.04798100000000       -0.55940900000000
H           -2.16343600000000       -0.16878300000000        1.36885100000000
H           -1.16259200000000       -1.21905000000000        0.40348400000000
H           -0.79041400000000        0.63362800000000       -1.24851900000000
H           -1.84906300000000        1.67076100000000       -0.34108900000000
H           -0.31742000000000        1.58715700000000        1.62550700000000
H            0.47342100000000        2.23376100000000        0.21211300000000
H            0.79140700000000       -0.63042700000000        1.25445500000000
H            1.94567500000000        0.65275100000000        1.45445100000000
H            1.08599500000000       -0.53845900000000       -1.23128200000000
H            2.17302300000000        0.81271000000000       -1.06611500000000
H            3.78336400000000       -0.62713800000000        0.23684600000000
H            3.45069700000000       -1.34003200000000       -1.33953600000000
H            2.67731400000000       -1.98607900000000        0.10593300000000
23
 energy: -23.156221272753 gnorm: 0.010885957043 xtb: 6.6.1 (8d0f1dd)
C           -3.06454328059431       -0.76058511846947       -0.50186000594842
C           -1.85665173884183       -0.37410317000051        0.33683682213765
C           -1.12914756844908        0.84350054489337       -0.23108072418700
C            0.05298236218097        1.30019110769573        0.62554540483381
C            1.17443893478249        0.26956482949692        0.76722486101798
C            1.83223393697642       -0.09852666334993       -0.56173941507457
C            2.99538947371571       -1.06017794876467       -0.37713393295316
H           -2.76607741930962       -1.00817803056589       -1.52059657471259
H           -3.57066484751209       -1.62821878196472       -0.07954868420321
H           -3.78301042584107        0.05760525320607       -0.55167971852465
H           -2.17343634434349       -0.15945319299302        1.36346264558183
H           -1.16815724875175       -1.22317074858972        0.38517881620200
H           -0.78670024741802        0.62272092836160       -1.24626821830251
H           -1.84216318967584        1.67136009554267       -0.31734613896862
H           -0.31462060587054        1.56175781248388        1.62409733510623
H            0.46887219824522        2.21710785835763        0.19320701825422
H            0.78724823532123       -0.63512676626351        1.24496336449931
H            1.93990185246943        0.67242550290965        1.44016378982952
H            1.09056720478350       -0.55620608804954       -1.22322928817630
H            2.18328836870247        0.81384870510777       -1.05639094797627
H            3.77522766579617       -0.61536172091458        0.24093995319652
H            3.43704925160409       -1.32602065239072       -1.33716760847835
H            2.66578443202994       -1.97929175573901        0.10736324684659
23
 energy: -23.156398041524 gnorm: 0.002290916719 xtb: 6.6.1 (8d0f1dd)
C           -3.06634785728062       -0.75760723163950       -0.50275434506568
C           -1.85606322584986       -0.37576298001084        0.33808700338566
C           -1.13030999262244        0.84105807459593       -0.23081091787284
C            0.05284473345748        1.29702780405201        0.62398312162821
C            1.17555729062428        0.26836749630406        0.76504850775340
C            1.83156630202387       -0.09867835060297       -0.56388433987803
C            2.99736772355719       -1.05919706437137       -0.37429026574225
H           -2.76316784481153       -1.00262181298602       -1.51890998034368
H           -3.56865440065296       -1.62415871626601       -0.07792164936053
H           -3.77913974368114        0.06343759066856       -0.54836670846301
H           -2.17650553756063       -0.15682886417821        1.35990325490994
H           -1.17285060574901       -1.22597069413979        0.37760410407130
H           -0.78907680034975        0.61809013187415       -1.24340962922927
H           -1.83974114649275        1.67034701887236       -0.30442031596423
H           -0.31334453196555        1.55037732701816        1.62286156007429
H            0.46671931534289        2.20920687791014        0.18503168050453
H            0.78973091732950       -0.63572009555368        1.23975261053564
H            1.93811000201040        0.68246008742311        1.43099007448577
H            1.09481708601370       -0.56478416427187       -1.22057053645320
H            2.18612584034697        0.81238176140844       -1.05275340207944
H            3.77107757863187       -0.60979151368117        0.24509158925329
H            3.43649342214363       -1.32104089278047       -1.33467724248687
H            2.66260247553449       -1.97492978964499        0.10935782633699
23
 energy: -23.156412178188 gnorm: 0.000606668445 xtb: 6.6.1 (8d0f1dd)
C           -3.06846639700450       -0.75639137530030       -0.50307279817247
C           -1.85681073875387       -0.37678552411943        0.33882498513583
C           -1.13154123018623        0.84021803982477       -0.23039563229152
C            0.05282975654105        1.29613998527166        0.62348111088057
C            1.17683511219876        0.26821621068613        0.76403393439117
C            1.83220714638168       -0.09894117378650       -0.56522145488763
C            2.99950252974017       -1.05890962390442       -0.37314068932837
H           -2.76482637130734       -0.99965524021466       -1.51925462141932
H           -3.57152337319977       -1.62273103441070       -0.07940103684845
H           -3.77934111204947        0.06602566865817       -0.54721594554082
H           -2.17686794707822       -0.15855584775817        1.36039692666898
H           -1.17494970703100       -1.22756070763182        0.37657131039811
H           -0.79189216075965        0.61811663529947       -1.24335722332294
H           -1.84066050826553        1.66933774048026       -0.30145459157718
H           -0.31264245361489        1.54868523292044        1.62230291042549
H            0.46588412166230        2.20784287583767        0.18395527135336
H            0.79278017150270       -0.63563857541499        1.23984311422283
H            1.93921331828650        0.68440378230642        1.42804945874816
H            1.09672258078804       -0.56706670558794       -1.22110012138590
H            2.18620910171176        0.81141517724437       -1.05471724348597
H            3.77081678167077       -0.60790507043683        0.24758611903594
H            3.44029504964656       -1.32061222934269       -1.33248382141685
H            2.66403732912019       -1.97398624062093        0.11071203841697
23
 energy: -23.156429804135 gnorm: 0.002785363187 xtb: 6.6.1 (8d0f1dd)
C           -3.07563769276731       -0.75210687111660       -0.50350038200299
C           -1.85996123888152       -0.38035665135131        0.33988359980401
C           -1.13517599843953        0.83748502605789       -0.22847377262515
C            0.05277584343913        1.29359471868477        0.62196903213537
C            1.18060948252939        0.26822084472913        0.76035207729072
C            1.83497700926725       -0.10108422895198       -0.56892749578271
C            3.00673326702471       -1.05740894564804       -0.36950300590781
H           -2.77231884870581       -0.99013840403294       -1.52073334410895
H           -3.58230081202010       -1.61819921288255       -0.08448196416483
H           -3.78157393454111        0.07447496408870       -0.54271990912674
H           -2.17790195240868       -0.16548444167909        1.36223024718510
H           -1.18118354871612       -1.23318837741815        0.37306195675328
H           -0.80047679601762        0.61850063893577       -1.24348572285281
H           -1.84424588878665        1.66636250316834       -0.29369068633049
H           -0.31029490101224        1.54521463928287        1.62128239641694
H            0.46325943710263        2.20528281841639        0.18140850626920
H            0.80208746408462       -0.63528934703760        1.24064258674745
H            1.94333780591077        0.68949468460386        1.41978951240386
H            1.10228267598646       -0.57481816195229       -1.22306595749438
H            2.18640965398255        0.80753803314687       -1.06222858608639
H            3.77126024073188       -0.60140555037767        0.25555408086081
H            3.45438292183841       -1.31932683065705       -1.32524636898275
H            2.67076681039889       -1.97169984800931        0.11482519959927
23
 energy: -23.156436731507 gnorm: 0.001913568667 xtb: 6.6.1 (8d0f1dd)
C           -3.07737822702587       -0.75053853099516       -0.50321994303786
C           -1.86094647803998       -0.38128134487908        0.33942784791327
C           -1.13574110073717        0.83669809576303       -0.22804258779884
C            0.05274218766363        1.29266137558711        0.62139821678622
C            1.18118688608476        0.26817514899751        0.75937373317143
C            1.83586837547162       -0.10223131312335       -0.56942300247858
C            3.00850866281134       -1.05648452833491       -0.36840835940825
H           -2.77548940407239       -0.98751750111584       -1.52122391569884
H           -3.58503253363434       -1.61670776962245       -0.08530884001599
H           -3.78269954360361        0.07679831984264       -0.54067790025637
H           -2.17787239579926       -0.16761241650815        1.36259576515317
H           -1.18257464988521       -1.23477283406613        0.37123070114696
H           -0.80183010875048        0.61831529185187       -1.24363073156484
H           -1.84495615584704        1.66584409590622       -0.29254039988299
H           -0.30949117148716        1.54447010042326        1.62121973120887
H            0.46240191624148        2.20488862026068        0.18061460306434
H            0.80356515293161       -0.63534199132639        1.24075195124345
H            1.94414976480600        0.69037595212197        1.41836431108579
H            1.10347556561610       -0.57754738650919       -1.22312161415656
H            2.18627889082689        0.80621566268596       -1.06430418128531
H            3.77174412043442       -0.59913402184173        0.25742398612274
H            3.45818610185941       -1.31822734760314       -1.32335840134280
H            2.67371514413527       -1.97138367751472        0.11580103003099
23
 energy: -23.156447771397 gnorm: 0.001855838926 xtb: 6.6.1 (8d0f1dd)
C           -3.08660323352425       -0.74204140041908       -0.50115191611308
C           -1.86515952628005       -0.38585439539387        0.33647508073185
C           -1.13780809805682        0.83260147008299       -0.22705139107844
C            0.05256177831322        1.28782900893427        0.61835317405894
C            1.18323832953149        0.26706320744102        0.75508574219637
C            1.83968924721836       -0.10838160272775       -0.57137215990380
C            3.01793115874441       -1.05106303320668       -0.36277931771224
H           -2.79317605244013       -0.97341669716776       -1.52336807445647
H           -3.59815530118394       -1.60874120483175       -0.08794314029873
H           -3.78873182041437        0.08909558720260       -0.52860601484677
H           -2.17584634885902       -0.17794851746526        1.36369882986944
H           -1.18927791749886       -1.24265539458937        0.35998732578895
H           -0.80688452687409        0.61634922305610       -1.24472644666288
H           -1.84718930458085        1.66304522376387       -0.28841780128883
H           -0.30600664849081        1.54025109938701        1.62029344088016
H            0.45860316162168        2.20209996566899        0.17628509100468
H            0.80905563299380       -0.63634157285333        1.24072769987881
H            1.94673459684677        0.69355754860535        1.41219795089521
H            1.10924923431154       -0.59256478051674       -1.22215684102260
H            2.18405447580627        0.79935814833871       -1.07375549214189
H            3.77441663134838       -0.58628309840505        0.26663898877857
H            3.47698206249570       -1.31099755615412       -1.31430357399478
H            2.69013346897155       -1.96929922875013        0.12083084543752
23
 energy: -23.156453309406 gnorm: 0.000943212034 xtb: 6.6.1 (8d0f1dd)
C           -3.08659287495113       -0.74215138757556       -0.50060715118693
C           -1.86423059416132       -0.38541088756398        0.33600853666514
C           -1.13702417126806        0.83280894108917       -0.22837826102596
C            0.05256852709758        1.28806653020401        0.61840968982328
C            1.18238372897814        0.26622677201632        0.75609808525368
C            1.83890422383425       -0.10826183774931       -0.57065944210401
C            3.01789654751242       -1.05074344588104       -0.36314579015223
H           -2.79380938975388       -0.97347638653462       -1.52287557067393
H           -3.59707497293647       -1.60888421905257       -0.08645432681837
H           -3.78877741715939        0.08873096115225       -0.52753110615259
H           -2.17408980703111       -0.17705244340846        1.36308368199156
H           -1.18866296092136       -1.24212197606896        0.35894079545608
H           -0.80494043271746        0.61576613303138       -1.24528714518155
H           -1.84611581343703        1.66303335675938       -0.29077292208783
H           -0.30711836650197        1.54048910043519        1.61966783096384
H            0.45972128942858        2.20166634701755        0.17661672153870
H            0.80690608106310       -0.63703304144129        1.24052911845937
H            1.94544859938407        0.69170791519111        1.41386425092626
H            1.10880272335916       -0.59265838310932       -1.22119072659365
H            2.18263748580721        0.79973263670321       -1.07237180029636
H            3.77459316199618       -0.58576214718610        0.26558229927353
H            3.47568994351473       -1.31006502655705       -1.31526693664470
H            2.69069548886378       -1.96894551147131        0.12068216856666
23
 energy: -23.156467190851 gnorm: 0.000825448745 xtb: 6.6.1 (8d0f1dd)
C           -3.09213553377781       -0.73777937706582       -0.49713329269684
C           -1.86253337176934       -0.38611312898300        0.33230485539825
C           -1.13485128923603        0.83129020261540       -0.23368645003399
C            0.05248865523526        1.28640543436129        0.61694208746329
C            1.17985730008509        0.26183038366412        0.75809519988276
C            1.83762879890064       -0.11119800607743       -0.56864817769321
C            3.02345863143732       -1.04630278423978       -0.36152037652809
H           -2.80698858305491       -0.96567385241191       -1.52219062865695
H           -3.60030690036733       -1.60508179150087       -0.08176425109224
H           -3.79275830122085        0.09442305628815       -0.51567584386939
H           -2.16488482142602       -0.17903890048513        1.36142185920618
H           -1.18973911762639       -1.24466386889035        0.34812532946805
H           -0.79958853575458        0.61231789195371       -1.24878099090850
H           -1.84310946999619        1.66131410643682       -0.29898572972665
H           -0.31043726876467        1.53952439454467        1.61637354912578
H            0.46289621701106        2.19836463929748        0.17586126408890
H            0.80085391497107       -0.64087650184734        1.24002850672955
H            1.94165822939896        0.68514643529446        1.41784427786194
H            1.11014930756695       -0.60161384949694       -1.21691202575674
H            2.17494826108020        0.79784924305051       -1.07183151157152
H            3.77736335261478       -0.57582414058894        0.26615763908701
H            3.48124189042594       -1.30251057744560       -1.31426110255962
H            2.70259963426684       -1.96612700847352        0.12317781278201
23
 energy: -23.156478432353 gnorm: 0.001329823276 xtb: 6.6.1 (8d0f1dd)
C           -3.10280220458347       -0.72904625087859       -0.49179649575631
C           -1.86197326048403       -0.38869360414371        0.32623533508704
C           -1.13285133434530        0.82769586259682       -0.24016261221772
C            0.05231643811744        1.28232352401624        0.61386250356296
C            1.17737876698067        0.25565911697391        0.75895488461633
C            1.83761104524572       -0.11714062275221       -0.56667227520567
C            3.03416153064293       -1.03855457285998       -0.35732520485764
H           -2.83048198508496       -0.95021090735234       -1.52185793351928
H           -3.60947270700545       -1.59731851396715       -0.07683022638975
H           -3.80005360704128        0.10624770350704       -0.49569377489903
H           -2.15236580390978       -0.18546283818866        1.35951354100880
H           -1.19397840100989       -1.25110493769553        0.33012891606889
H           -0.79479185108893        0.60738630862341       -1.25391063981296
H           -1.84029477357475        1.65802549966257       -0.30797513551363
H           -0.31374668459970        1.53675606412961        1.61167723055611
H            0.46590701620407        2.19297813348998        0.17337860886270
H            0.79524611754327       -0.64632964990832        1.23946913498721
H            1.93786706317930        0.67773120844736        1.42076680699664
H            1.11452433411787       -0.61839033829655       -1.21148842529300
H            2.16453686359251        0.79311214318086       -1.07438111634542
H            3.78224808373725       -0.55804414806405        0.26969986568285
H            3.49502247588779       -1.29080116705292       -1.30954490282240
H            2.72380387747871       -1.96115601346779        0.12889391520326
23
 energy: -23.156483488194 gnorm: 0.000670016469 xtb: 6.6.1 (8d0f1dd)
C           -3.11038718366462       -0.72248570858709       -0.48831811464096
C           -1.86253032495155       -0.39104129999184        0.32210848068878
C           -1.13215269760532        0.82477290899750       -0.24371808657274
C            0.05214890828834        1.27894889646364        0.61146028214357
C            1.17631308164707        0.25183629834022        0.75856934751012
C            1.83854817774173       -0.12150270282894       -0.56583274331759
C            3.04181183047048       -1.03306788382242       -0.35384923921767
H           -2.84705210998969       -0.93848632762162       -1.52182952615363
H           -3.61689746637076       -1.59156193544504       -0.07468373481622
H           -3.80502028391954        0.11503894213682       -0.48178437584670
H           -2.14488429683667       -0.19126366909292        1.35848445714925
H           -1.19800310409091       -1.25634652742791        0.31790910700409
H           -0.79320515069018        0.60445430984068       -1.25732476893553
H           -1.83928331284640        1.65562774147408       -0.31234678446837
H           -0.31513542056759        1.53443004656638        1.60877092499277
H            0.46702531053938        2.18937415805925        0.17122334023107
H            0.79311331322839       -0.64985447508223        1.23912313782240
H            1.93616990658279        0.67387993982044        1.42154838777274
H            1.11862015018707       -0.63010115829518       -1.20872865860809
H            2.15868885816402        0.78930426233529       -1.07728289505788
H            3.78587418202525       -0.54532592379502        0.27251965668132
H            3.50542155019576       -1.28383511684827       -1.30522697891427
H            2.73862708246300       -1.95713277519582        0.13415078455352
23
 energy: -23.156485190972 gnorm: 0.000123394945 xtb: 6.6.1 (8d0f1dd)
C           -3.11416206244006       -0.71916603847072       -0.48677920923359
C           -1.86324826266086       -0.39253381699850        0.32023482297475
C           -1.13222803787820        0.82312527100431       -0.24490954248770
C            0.05202763077861        1.27705835382470        0.61019054909961
C            1.17615630365450        0.25022613466110        0.75782228722346
C            1.83964334690011       -0.12341007967110       -0.56578636980991
C            3.04555375533427       -1.03047519590692       -0.35188991656718
H           -2.85485434813560       -0.93226403647513       -1.52183675102719
H           -3.62100768059742       -1.58874978182785       -0.07440362257673
H           -3.80732462672780        0.11947803643187       -0.47509302653012
H           -2.14208891120215       -0.19455962834900        1.35799296121098
H           -1.20044184605786       -1.25923306615061        0.31232352484208
H           -0.79349674957473        0.60316391842677       -1.25880365664230
H           -1.83930166798051        1.65431595219749       -0.31331167756174
H           -0.31538362768585        1.53294124717913        1.60753297139615
H            0.46702641572460        2.18760685926557        0.16990624841302
H            0.79302309720895       -0.65152485127353        1.23861880172366
H            1.93570378902134        0.67264067052057        1.42126194384311
H            1.12131018686023       -0.63515309389374       -1.20813588206523
H            2.15710841350751        0.78756962772060       -1.07883854982688
H            3.78807307021169       -0.53899457267065        0.27341390706680
H            3.51023800670745       -1.28189685914768       -1.30264782429125
H            2.74548480503183       -1.95450305039672        0.13808001082619
