38
 energy: -38.973585350671 gnorm: 0.031641393715 xtb: 6.6.1 (8d0f1dd)
C            2.80032600000000        2.71021300000000       -0.71454300000000
C            2.76359800000000        1.62514400000000        0.35011400000000
C            2.34413700000000        0.26506600000000       -0.20907800000000
C            2.25169500000000       -0.81947400000000        0.86450400000000
C            1.80597300000000       -2.18258400000000        0.32541900000000
C            0.41433500000000       -2.17811200000000       -0.31560800000000
C           -0.70063200000000       -1.77521700000000        0.64969500000000
C           -2.09474400000000       -1.78874200000000        0.01638200000000
C           -2.26873400000000       -0.79924500000000       -1.14159500000000
C           -1.95725400000000        0.65673600000000       -0.78152800000000
C           -2.84807200000000        1.22446800000000        0.32376300000000
C           -2.52990600000000        2.67754700000000        0.64005700000000
H            1.82012800000000        2.84207800000000       -1.17804300000000
H            3.50122000000000        2.45704100000000       -1.51276400000000
H            3.10261500000000        3.67747900000000       -0.30580600000000
H            3.74544000000000        1.53283200000000        0.83407900000000
H            2.07551000000000        1.91235200000000        1.15701000000000
H            3.04593900000000       -0.04771500000000       -0.99224500000000
H            1.38007800000000        0.37024700000000       -0.71914900000000
H            3.22617200000000       -0.91326800000000        1.36239400000000
H            1.56686300000000       -0.49004800000000        1.65496400000000
H            2.54694800000000       -2.53713600000000       -0.40326400000000
H            1.82226400000000       -2.92299300000000        1.13615900000000
H            0.18790000000000       -3.17024300000000       -0.72866800000000
H            0.41223500000000       -1.50831200000000       -1.18277200000000
H           -0.67669900000000       -2.44310400000000        1.52124000000000
H           -0.49631800000000       -0.77834200000000        1.05608300000000
H           -2.85063500000000       -1.58204400000000        0.78515900000000
H           -2.31861800000000       -2.80606300000000       -0.33139400000000
H           -3.29664700000000       -0.85908500000000       -1.52374200000000
H           -1.63766300000000       -1.11253300000000       -1.98341500000000
H           -0.90726000000000        0.75101100000000       -0.48183200000000
H           -2.04890200000000        1.29003700000000       -1.67427100000000
H           -2.74404500000000        0.61499300000000        1.23094000000000
H           -3.90155500000000        1.12080200000000        0.03053400000000
H           -2.65929300000000        3.31153700000000       -0.23957600000000
H           -1.49472200000000        2.79211800000000        0.96854000000000
H           -3.17122400000000        3.07682600000000        1.42948300000000
38
 energy: -38.975821172007 gnorm: 0.013721908250 xtb: 6.6.1 (8d0f1dd)
C            2.79971038141503        2.70228370395473       -0.71461031539761
C            2.76503274130339        1.62041844469688        0.35395124773426
C            2.34377411703788        0.26630399870159       -0.21348996846746
C            2.24879909327587       -0.81308482829782        0.86330517566833
C            1.80159243574524       -2.17445443774062        0.32564591576085
C            0.41334111785314       -2.17347542832190       -0.31723340021139
C           -0.69862004579468       -1.77262928012448        0.65033332815727
C           -2.08924834987019       -1.78831660563029        0.01511434279406
C           -2.26792623111579       -0.79498532547806       -1.13653879565927
C           -1.95587761108876        0.65892864740458       -0.77765879244159
C           -2.85081118023909        1.22159913075712        0.32486229543821
C           -2.52726213557155        2.67503718536962        0.63364256617282
H            1.81721387992656        2.83094490090117       -1.16922262373973
H            3.50392748812869        2.44487834405793       -1.50554548219406
H            3.10242880004491        3.66043882309691       -0.29320476437858
H            3.75199791825011        1.52955682843690        0.82065597561817
H            2.06653275508557        1.91225579736350        1.14646885301714
H            3.05712627190098       -0.04699253353451       -0.98320652852802
H            1.37498465415614        0.38097513791168       -0.70731817773939
H            3.22862356850947       -0.92483264320801        1.34127398732057
H            1.56057847572463       -0.48450638129352        1.64769092799771
H            2.53283758484104       -2.52145196438577       -0.41283341766738
H            1.81355249829054       -2.90103106329570        1.14580893695153
H            0.19984224114316       -3.17485368102719       -0.70808694127733
H            0.41640240635715       -1.49991661824231       -1.17710429331355
H           -0.68844717484099       -2.45745766883077        1.50589147149792
H           -0.50033118336479       -0.77517333530579        1.04806530483509
H           -2.83451098514871       -1.57681565339846        0.78842244339247
H           -2.30462845392845       -2.79760337882729       -0.35342704574639
H           -3.30069005663223       -0.85872529728978       -1.49741075223763
H           -1.63074848780698       -1.09795313216296       -1.97346895022299
H           -0.90960676525482        0.74874697166899       -0.47233621768315
H           -2.06983454335017        1.27674439590941       -1.67586535312536
H           -2.73014423630554        0.62604005812539        1.23487217757150
H           -3.89972581562042        1.13176028093323        0.02135430621969
H           -2.66243469970547        3.30123402711191       -0.24819069241689
H           -1.49385656921482        2.78027038274500        0.96443249215341
H           -3.17314090413602        3.06010919724869        1.42218676414680
38
 energy: -38.976164044768 gnorm: 0.002500085767 xtb: 6.6.1 (8d0f1dd)
C            2.80100182848646        2.70017755282703       -0.71435141763124
C            2.76716568701463        1.61813500982202        0.35678925070092
C            2.34384550198466        0.26758579109838       -0.21499942541667
C            2.24964823670468       -0.80978734862272        0.86271611271761
C            1.80040115119992       -2.17061767268839        0.32633138103357
C            0.41287900581443       -2.17261265225771       -0.31714416785615
C           -0.69833104369244       -1.77426640208409        0.65086117554290
C           -2.08735533140627       -1.78991663010353        0.01333744874659
C           -2.26896873185260       -0.79339506499031       -1.13485217733154
C           -1.95829683445701        0.66036679137763       -0.77665972899173
C           -2.85258303026337        1.22074413429456        0.32618461334636
C           -2.52679593743948        2.67669454924707        0.63048003108257
H            1.81756594702979        2.82424376865013       -1.16421060068259
H            3.50512103649350        2.43809125705082       -1.50147997727734
H            3.10394487157725        3.65387862357299       -0.28750646027552
H            3.75501976202050        1.52701910302822        0.81509002822140
H            2.06539577121139        1.91082284873197        1.14253405513235
H            3.06088313852476       -0.04548733455234       -0.97817190252787
H            1.37456883775357        0.38846794008376       -0.70178774369736
H            3.23150041239402       -0.92985194182982        1.32934930941987
H            1.56228796706208       -0.47983170274728        1.64408649112908
H            2.52667416098553       -2.51332025099449       -0.41586716630591
H            1.80986238574974       -2.88847745796900        1.15124985867462
H            0.20682763218602       -3.17776043684169       -0.69599591958454
H            0.41695859530390       -1.49891526935438       -1.17364297631287
H           -0.69426559493348       -2.46780473062911        1.49668287939853
H           -0.50362460369598       -0.77827269900947        1.04660264076556
H           -2.82776924452842       -1.58001868477201        0.78840605028173
H           -2.29529424688744       -2.79364572496118       -0.36803802671805
H           -3.30416682881064       -0.85759537766405       -1.48175429111838
H           -1.63137439935962       -1.08972371600793       -1.97078543776217
H           -0.91482985768581        0.75018136854417       -0.46975787455925
H           -2.08338141526903        1.27059443623869       -1.67600991970267
H           -2.72483382614908        0.63309806027789        1.23702466247034
H           -3.89800469385927        1.13657443457616        0.01886918762092
H           -2.66367394955537        3.29599260475815       -0.25386818357084
H           -1.49386848093348        2.77602637976993        0.95923638173963
H           -3.17368087871804        3.05687344412997        1.41827783929812
38
 energy: -38.976192427990 gnorm: 0.000901406361 xtb: 6.6.1 (8d0f1dd)
C            2.80255505151064        2.70064621563078       -0.71383142166934
C            2.76902357393510        1.61808652334008        0.35799606165667
C            2.34467683452182        0.26839723604966       -0.21530436929396
C            2.25099894340495       -0.80880663484299        0.86261315349408
C            1.80088212932544       -2.17007020594970        0.32717660585760
C            0.41308091925275       -2.17354774843422       -0.31667302802329
C           -0.69868675050845       -1.77646987200696        0.65116505515742
C           -2.08735978920978       -1.79192887487586        0.01179610323519
C           -2.27107374079534       -0.79300043356830       -1.13444912348384
C           -1.96040933185044        0.66116910052516       -0.77642438805037
C           -2.85410637063983        1.22119867841771        0.32705949498119
C           -2.52717784103965        2.67844677272860        0.62910299199413
H            1.81887355536778        2.82341063660537       -1.16285694565293
H            3.50612149990645        2.43721880745016       -1.50064047185705
H            3.10561847175024        3.65399524274749       -0.28708888183510
H            3.75681749292064        1.52631860126187        0.81516439465786
H            2.06772889849208        1.91059475216256        1.14359359161222
H            3.06094961930299       -0.04450277073145       -0.97866731380700
H            1.37546935697157        0.39054978120310       -0.70110126373377
H            3.23338960115200       -0.92970420026595        1.32668691444930
H            1.56546102705421       -0.47806389014380        1.64481519518214
H            2.52676920735415       -2.51264644108258       -0.41480284957432
H            1.81003000633382       -2.88642410633413        1.15276606342865
H            0.20889338214375       -3.17917750477103       -0.69379863830472
H            0.41626535117088       -1.50065408388031       -1.17344454972645
H           -0.69567299724295       -2.47192050815211        1.49482408386787
H           -0.50482007794599       -0.78138998035881        1.04894267015135
H           -2.82836876639137       -1.58535090014912        0.78665682935743
H           -2.29254514389409       -2.79437349690587       -0.37309623826263
H           -3.30687604056138       -0.85699192172781       -1.47814468376306
H           -1.63530148655990       -1.08789370175059       -1.97176261839028
H           -0.91688532539041        0.75215770936405       -0.47105728549122
H           -2.08793282368796        1.27038812259766       -1.67556457547391
H           -2.72494499922750        0.63516169791019        1.23822865393509
H           -3.89940757570192        1.13722341050652        0.02088995769917
H           -2.66449426856180        3.29544489375088       -0.25646888978682
H           -1.49390925624579        2.77700617182581        0.95623553840412
H           -3.17317933641675        3.05976992185396        1.41669017705859
38
 energy: -38.976230996244 gnorm: 0.003468502103 xtb: 6.6.1 (8d0f1dd)
C            2.80911877834729        2.70292692341887       -0.71158382877435
C            2.77636613223068        1.61878857549111        0.36087600071060
C            2.34757365720713        0.27140670086261       -0.21540321031146
C            2.25607525728544       -0.80623265927819        0.86232659262540
C            1.80292588191887       -2.16864419290139        0.33025763341355
C            0.41443026323740       -2.17682542273250       -0.31476759794121
C           -0.70066482661680       -1.78437444677196        0.65130070163371
C           -2.08807395037510       -1.79918677798760        0.00627461727037
C           -2.27910373461332       -0.79237446175918       -1.13327467208127
C           -1.96904219079082        0.66281285667066       -0.77527171707057
C           -2.85888905070695        1.22383124623543        0.33086866063850
C           -2.52928444765545        2.68454514080036        0.62397093478130
H            1.82459519364575        2.82340673145401       -1.15849637768836
H            3.51089272036143        2.43663164368926       -1.49856431235442
H            3.11296435852143        3.65607205401061       -0.28617907861883
H            3.76447241272085        1.52426554079925        0.81549627100389
H            2.07771897359951        1.91089893257181        1.14815724133022
H            3.06061830020543       -0.04099295403949       -0.98130871788626
H            1.37797638137447        0.39676724908060       -0.69873967070575
H            3.24054404136001       -0.92854879038427        1.32007406207350
H            1.57645808308532       -0.47311082294356        1.64834561557951
H            2.52888923724350       -2.51276809191605       -0.41005702258364
H            1.81139991523360       -2.88170909598298        1.15781860928904
H            0.21574822019263       -3.18398482610273       -0.68886420425053
H            0.41432849027638       -1.50652299731346       -1.17337180124707
H           -0.70094890011417       -2.48549822418151        1.48954463387059
H           -0.50891434464339       -0.79223997752197        1.05730912761633
H           -2.83280998702055       -1.60581708609559        0.78064092698130
H           -2.28423926841163       -2.79856169446972       -0.38964142288301
H           -3.31736343225586       -0.85554611786967       -1.46784640447701
H           -1.65045959086742       -1.08296602072271       -1.97705172825173
H           -0.92435019606585        0.75754571860662       -0.47589750600636
H           -2.10303024988601        1.27028429163482       -1.67399547585029
H           -2.72568997134647        0.64191189076478        1.24355260543086
H           -3.90515720689621        1.13920863636142        0.03012824135062
H           -2.66867147822900        3.29440851394570       -0.26591520589791
H           -1.49446934744526        2.78237984413588        0.94537909834056
H           -3.17148112410687        3.07207917044072        1.41113438094018
38
 energy: -38.976241664268 gnorm: 0.002011952629 xtb: 6.6.1 (8d0f1dd)
C            2.81068837474074        2.70323707542791       -0.71111909851388
C            2.77779097910178        1.61912006481498        0.36055697748892
C            2.34786531785528        0.27182672735700       -0.21497416687845
C            2.25651428893396       -0.80614613234709        0.86240491507632
C            1.80298591837346       -2.16831885130341        0.33063291193984
C            0.41483059898342       -2.17680394817577       -0.31464608651817
C           -0.70116714961658       -1.78513607212983        0.65076431525620
C           -2.08821296866384       -1.80016179787985        0.00547397349476
C           -2.28065440835717       -0.79260233296974       -1.13291098226471
C           -1.97052142070183        0.66230258277676       -0.77484635169109
C           -2.85922212459023        1.22435138164153        0.33169737225552
C           -2.52987666398168        2.68486705432873        0.62287254929974
H            1.82612848238363        2.82499617820474       -1.15797590459492
H            3.51230865520699        2.43769285171373       -1.49870643345664
H            3.11504753581916        3.65640242094428       -0.28562837484833
H            3.76633532847462        1.52386042666668        0.81483451750926
H            2.07996767633277        1.91165492242097        1.14883308279577
H            3.06031744084589       -0.04078511784975       -0.98176800499288
H            1.37772966674429        0.39734178811288       -0.69773491333213
H            3.24126515778289       -0.92851123992689        1.32037648719305
H            1.57705581935258       -0.47313472627260        1.64889422497568
H            2.52926775158571       -2.51350269636161       -0.40932903093185
H            1.81144484877460       -2.88153672871853        1.15849851454542
H            0.21664984298401       -3.18414435161696       -0.68953903764331
H            0.41465822921330       -1.50632555322964       -1.17335260203139
H           -0.70181701030405       -2.48664153546847        1.48908758630370
H           -0.50954362149079       -0.79314361181219        1.05757175279207
H           -2.83350131909397       -1.60871157640155        0.78007558842528
H           -2.28368891246826       -2.79960151693614       -0.39133067215688
H           -3.31934411871220       -0.85605579002496       -1.46707014312283
H           -1.65284603458851       -1.08263616932009       -1.97780731949204
H           -0.92542936466751        0.75683805715876       -0.47613459546609
H           -2.10467564271290        1.27004808367188       -1.67374574843014
H           -2.72525483628491        0.64279763679783        1.24483370765209
H           -3.90612816565901        1.13911181600926        0.03222937481288
H           -2.67023959457694        3.29413594970808       -0.26744852129683
H           -1.49481175238871        2.78391772250476        0.94354285927188
H           -3.17146380462999        3.07366400848435        1.41011327657418
38
 energy: -38.976254369097 gnorm: 0.000905329719 xtb: 6.6.1 (8d0f1dd)
C            2.81572224364975        2.70412909618877       -0.70976046873887
C            2.78234606277851        1.61970624877496        0.35994229743582
C            2.34844925459407        0.27305307944737       -0.21395587076615
C            2.25729947020324       -0.80554643904686        0.86274803217309
C            1.80293343061931       -2.16719885878993        0.33157859066473
C            0.41577389823877       -2.17624945818246       -0.31477188869707
C           -0.70244731684610       -1.78695244424973        0.64916002604311
C           -2.08878236479735       -1.80305736994744        0.00348107482785
C           -2.28503388619782       -0.79354327266610       -1.13195486432486
C           -1.97461052875343        0.66062588853870       -0.77357669780507
C           -2.86025769888096        1.22516683938792        0.33420491318059
C           -2.53185952683172        2.68573081927321        0.61949832835493
H            1.83107115538015        2.82949120977816       -1.15615368185740
H            3.51661164730786        2.44024652051839       -1.49897031463688
H            3.12190644601205        3.65680351610269       -0.28342765196056
H            3.77203513840845        1.52200940751821        0.81257075618849
H            2.08706335628405        1.91365902873900        1.15068153091402
H            3.05890152059976       -0.04053266426540       -0.98291663581675
H            1.37692381556051        0.39969204516662       -0.69454227130492
H            3.24251298136715       -0.92837844803752        1.32110028372060
H            1.57807718265739       -0.47275656933944        1.65003362949973
H            2.52988838026108       -2.51481148677606       -0.40742141330151
H            1.81095606637823       -2.88035225011255        1.16032559526765
H            0.21913532757404       -3.18378469674156       -0.69174331870609
H            0.41561554609610       -1.50482809913888       -1.17312530959952
H           -0.70367192331129       -2.48946868085491        1.48732614742407
H           -0.51160277292364       -0.79524661400318        1.05761391969999
H           -2.83492953021082       -1.61644276952018        0.77900463604906
H           -2.28211916844772       -2.80242322697702       -0.39596382534661
H           -3.32488132610693       -0.85773532821858       -1.46420415029651
H           -1.65944858701287       -1.08173404664856       -1.97971143883105
H           -0.92867458283282        0.75432940451072       -0.47649558645752
H           -2.10937076118275        1.26891135702083       -1.67268762503496
H           -2.72338968919136        0.64532090001322        1.24859001574178
H           -3.90859395676416        1.13793588157288        0.03834716999200
H           -2.67533413110007        3.29272727519431       -0.27226377412396
H           -1.49605099157821        2.78822592799203        0.93757033852601
H           -3.17171118100049        3.07754527777839        1.40709550190274
38
 energy: -38.976260206573 gnorm: 0.001441176066 xtb: 6.6.1 (8d0f1dd)
C            2.82015887720918        2.70487444348959       -0.70872034646183
C            2.78619389445599        1.61972831660228        0.35985406087813
C            2.34855442796527        0.27399731226266       -0.21343108775576
C            2.25712230870162       -0.80474754684876        0.86311916061623
C            1.80254891027729       -2.16625091671370        0.33195925622456
C            0.41606241793265       -2.17515681026437       -0.31554833815512
C           -0.70310534633375       -1.78771399164283        0.64808578146985
C           -2.08938175188313       -1.80514578974295        0.00258701573337
C           -2.28810095999018       -0.79463639040910       -1.13136985648216
C           -1.97709195515762        0.65916308658088       -0.77272912988749
C           -2.86098239139860        1.22477499374191        0.33599547270948
C           -2.53378979091049        2.68611737116904        0.61693430528272
H            1.83539449208048        2.83272717552542       -1.15433425637647
H            3.52009128120054        2.44142876051954       -1.49902417209356
H            3.12813329949735        3.65666923232642       -0.28140170662315
H            3.77658203817956        1.51972239339783        0.81067179237762
H            2.09302199145481        1.91483656709423        1.15213661426546
H            3.05709391055968       -0.04079888652292       -0.98373885324387
H            1.37625151794766        0.40237426912556       -0.69208107322181
H            3.24225104871120       -0.92794240851991        1.32177313123107
H            1.57772919943561       -0.47199687333747        1.65035228119234
H            2.52999018038723       -2.51477407864717       -0.40627855331047
H            1.80975432056481       -2.87913771837970        1.16110287444303
H            0.22033781455029       -3.18235257891245       -0.69413931434236
H            0.41621790019710       -1.50249352975691       -1.17297940915412
H           -0.70380026233832       -2.49061855536494        1.48601094256860
H           -0.51330655459017       -0.79597000289698        1.05696403755024
H           -2.83549709961622       -1.62088989654828        0.77878549375559
H           -2.28135102005697       -2.80435607855835       -0.39812881901262
H           -3.32856488426897       -0.85914718823102       -1.46194942043936
H           -1.66389223704067       -1.08176250353219       -1.98059624364673
H           -0.93079329088242        0.75209432008005       -0.47658411382816
H           -2.11232035824095        1.26775003127587       -1.67165616565142
H           -2.72129122887173        0.64684632895862        1.25127667341477
H           -3.90999918176082        1.13561377034268        0.04281731173357
H           -2.68000859441763        3.29090157744912       -0.27598897959816
H           -1.49739596832563        2.79112966331435        0.93252628658924
H           -3.17236395522407        3.07940913157398        1.40495334724876
38
 energy: -38.976278370032 gnorm: 0.001271769149 xtb: 6.6.1 (8d0f1dd)
C            2.83564003294629        2.70721536813632       -0.70524091919346
C            2.79934804682287        1.61910117418045        0.36038623857836
C            2.34825629423232        0.27726885905298       -0.21211768464196
C            2.25491533541876       -0.80160103197074        0.86429802355669
C            1.80063323229476       -2.16295769667840        0.33215133726535
C            0.41596443055881       -2.17018723989589       -0.31919408235858
C           -0.70473717019959       -1.78869057890239        0.64508971887083
C           -2.09182319764226       -1.81117349672906        0.00149104906755
C           -2.29683856817995       -0.79898664001356       -1.12978496201923
C           -1.98362142943572        0.65410710344591       -0.77058655245315
C           -2.86286785836899        1.22149782440310        0.34115879899132
C           -2.54102769440451        2.68654192529331        0.60895400142672
H            1.85029466592619        2.84262116844914       -1.14741692435938
H            3.53166704028938        2.44328589844801       -1.49884687145637
H            3.15029246858158        3.65555190243646       -0.27488780204495
H            3.79170843841191        1.51071713112806        0.80475921545799
H            2.11321287677566        1.91795057304390        1.15728047030083
H            3.05003125034532       -0.04226637444982       -0.98647390932027
H            1.37400735495622        0.41301091777060       -0.68455617673976
H            3.23912140798208       -0.92562227308267        1.32434383940039
H            1.57427204755634       -0.46881003503990        1.65034419041833
H            2.52986795077749       -2.51258690284174       -0.40364179617280
H            1.80445202126028       -2.87524594519960        1.16173451423705
H            0.22220291136977       -3.17546022116041       -0.70340183178131
H            0.41747997724024       -1.49269437099399       -1.17274465295283
H           -0.70168551859224       -2.49219631762285        1.48229950378746
H           -0.51882660597508       -0.79642628975373        1.05425989942999
H           -2.83698087786445       -1.63160933896394        0.77959137394951
H           -2.28016866274393       -2.81014145384307       -0.40121554947234
H           -3.33882774954138       -0.86369474502699       -1.45516479530578
H           -1.67650805127816       -1.08412699064428       -1.98243861800611
H           -0.93645768639152        0.74482246476145       -0.47724607728204
H           -2.12047267838291        1.26353229912857       -1.66852859085455
H           -2.71322897773285        0.65043251939161        1.25919051576532
H           -3.91348697202243        1.12503618395770        0.05638237715720
H           -2.69699685694278        3.28373593158250       -0.28754335476367
H           -1.50273820297338        2.79952164815643        0.91579439037801
H           -3.17562002507417        3.08279405004657        1.39874769313964
38
 energy: -38.976294826266 gnorm: 0.000782291745 xtb: 6.6.1 (8d0f1dd)
C            2.85424828604374        2.70936413648840       -0.70097456654114
C            2.81491676705625        1.61808075300174        0.36184714293726
C            2.34773007610942        0.28159321821035       -0.21060166336946
C            2.25127452745867       -0.79769965802033        0.86523905430514
C            1.79779413267856       -2.15869704815658        0.33102878140108
C            0.41464563076908       -2.16327373131015       -0.32371693190734
C           -0.70643005199007       -1.78856499464954        0.64274061480076
C           -2.09487999389477       -1.81674811375234        0.00217229862655
C           -2.30535761504499       -0.80446676019616       -1.12811161757549
C           -1.98972867180813        0.64832589771253       -0.76939968315628
C           -2.86430371132466        1.21627311510795        0.34578870437257
C           -2.55035379551347        2.68581690432632        0.60041749368822
H            1.86796149788978        2.85305052023109       -1.13830062393989
H            3.54495332595144        2.44296975169531       -1.49831449780615
H            3.17747860723653        3.65377255731713       -0.26851704602384
H            3.80925431556554        1.49942821076973        0.79890639301887
H            2.13693007754886        1.92100551675875        1.16400438073625
H            3.04160211234417       -0.04353180344469       -0.98961298461614
H            1.37183739175748        0.42719356972565       -0.67662175955808
H            3.23427222011956       -0.92232644457792        1.32732829893233
H            1.56887265885913       -0.46490771266071        1.64962651204123
H            2.52905754775908       -2.50815271305990       -0.40257653280638
H            1.79802616476639       -2.87131521657211        1.16011041148457
H            0.22205203142285       -3.16605964217477       -0.71453768324928
H            0.41732483916809       -1.48011017606729       -1.17267159862941
H           -0.69785643817160       -2.49280151753129        1.47916471046109
H           -0.52475270734191       -0.79574769668266        1.05233933267666
H           -2.83878666768255       -1.63987103020750        0.78193709662330
H           -2.28022850917766       -2.81610013113142       -0.40052568132893
H           -3.34877014299927       -0.86869272926189       -1.44846441638213
H           -1.68887912270631       -1.08936992024587       -1.98349125335095
H           -0.94149552355929        0.73784893795505       -0.47988669477080
H           -2.12935416556888        1.25825071913972       -1.66641887699006