      -----------------------------------------------------------      
     |                   =====================                   |     
     |                           x T B                           |     
     |                   =====================                   |     
     |                         S. Grimme                         |     
     |          Mulliken Center for Theoretical Chemistry        |     
     |                    University of Bonn                     |     
      -----------------------------------------------------------      

   * xtb version 6.6.1 (8d0f1dd) compiled by 'stahn@M-Bot' on 2023-08-01

   xtb is free software: you can redistribute it and/or modify it under
   the terms of the GNU Lesser General Public License as published by
   the Free Software Foundation, either version 3 of the License, or
   (at your option) any later version.
   
   xtb is distributed in the hope that it will be useful,
   but WITHOUT ANY WARRANTY; without even the implied warranty of
   MERCHANTABILITY or FITNESS FOR A PARTICULAR PURPOSE.  See the
   GNU Lesser General Public License for more details.
   
   Cite this work as:
   * C. Bannwarth, E. Caldeweyher, S. Ehlert, A. Hansen, P. Pracht,
     J. Seibert, S. Spicher, S. Grimme, WIREs Comput. Mol. Sci., 2020, 11,
     e01493. DOI: 10.1002/wcms.1493
   
   for GFN2-xTB:
   * C. Bannwarth, S. Ehlert and S. Grimme., J. Chem. Theory Comput., 2019,
     15, 1652-1671. DOI: 10.1021/acs.jctc.8b01176
   for GFN1-xTB:
   * S. Grimme, C. Bannwarth, P. Shushkov, J. Chem. Theory Comput., 2017,
     13, 1989-2009. DOI: 10.1021/acs.jctc.7b00118
   for GFN0-xTB:
   * P. Pracht, E. Caldeweyher, S. Ehlert, S. Grimme, ChemRxiv, 2019, preprint.
     DOI: 10.26434/chemrxiv.8326202.v1
   for GFN-FF:
   * S. Spicher and S. Grimme, Angew. Chem. Int. Ed., 2020, 59, 15665-15673.
     DOI: 10.1002/anie.202004239
   
   for ALPB and GBSA implicit solvation:
   * S. Ehlert, M. Stahn, S. Spicher, S. Grimme, J. Chem. Theory Comput.,
     2021, 17, 4250-4261. DOI: 10.1021/acs.jctc.1c00471
   
   for DFT-D4:
   * E. Caldeweyher, C. Bannwarth and S. Grimme, J. Chem. Phys., 2017,
     147, 034112. DOI: 10.1063/1.4993215
   * E. Caldeweyher, S. Ehlert, A. Hansen, H. Neugebauer, S. Spicher,
     C. Bannwarth and S. Grimme, J. Chem. Phys., 2019, 150, 154122.
     DOI: 10.1063/1.5090222
   * E. Caldeweyher, J.-M. Mewes, S. Ehlert and S. Grimme, Phys. Chem. Chem. Phys.
     2020, 22, 8499-8512. DOI: 10.1039/D0CP00502A
   
   for sTDA-xTB:
   * S. Grimme and C. Bannwarth, J. Chem. Phys., 2016, 145, 054103.
     DOI: 10.1063/1.4959605
   
   in the mass-spec context:
   * V. Asgeirsson, C. Bauer and S. Grimme, Chem. Sci., 2017, 8, 4879.
     DOI: 10.1039/c7sc00601b
   * J. Koopman and S. Grimme, ACS Omega 2019, 4, 12, 15120-15133.
     DOI: 10.1021/acsomega.9b02011
   
   for metadynamics refer to:
   * S. Grimme, J. Chem. Theory Comput., 2019, 155, 2847-2862
     DOI: 10.1021/acs.jctc.9b00143
   
   for SPH calculations refer to:
   * S. Spicher and S. Grimme, J. Chem. Theory Comput., 2021, 17, 1701-1714
     DOI: 10.1021/acs.jctc.0c01306
   
   with help from (in alphabetical order)
   P. Atkinson, C. Bannwarth, F. Bohle, G. Brandenburg, E. Caldeweyher
   M. Checinski, S. Dohm, S. Ehlert, S. Ehrlich, I. Gerasimov, C. Hölzer
   A. Katbashev, J. Koopman, C. Lavigne, S. Lehtola, F. März, M. Müller,
   F. Musil, H. Neugebauer, J. Pisarek, C. Plett, P. Pracht, F. Pultar,
   J. Seibert, P. Shushkov, S. Spicher, M. Stahn, M. Steiner, T. Strunk,
   J. Stückrath, T. Rose, and J. Unsleber
   
 * started run on 2024/04/23 at 12:10:36.386     

           -------------------------------------------------
          |                Calculation Setup                |
           -------------------------------------------------

          program call               : xtb folded.xyz --gfn 2 --ohess -P 4
          coordinate file            : folded.xyz
          omp threads                :                     4

   ID    Z sym.   atoms
    1    6 C      1-14
    2    1 H      15-44

           -------------------------------------------------
          |                 G F N 2 - x T B                 |
           -------------------------------------------------

        Reference                      10.1021/acs.jctc.8b01176
      * Hamiltonian:
        H0-scaling (s, p, d)           1.850000    2.230000    2.230000
        zeta-weighting                 0.500000
      * Dispersion:
        s8                             2.700000
        a1                             0.520000
        a2                             5.000000
        s9                             5.000000
      * Repulsion:
        kExp                           1.500000    1.000000
        rExp                           1.000000
      * Coulomb:
        alpha                          2.000000
        third order                    shell-resolved
        anisotropic                    true
        a3                             3.000000
        a5                             4.000000
        cn-shift                       1.200000
        cn-exp                         4.000000
        max-rad                        5.000000


          ...................................................
          :                      SETUP                      :
          :.................................................:
          :  # basis functions                  86          :
          :  # atomic orbitals                  86          :
          :  # shells                           58          :
          :  # electrons                        86          :
          :  max. iterations                   250          :
          :  Hamiltonian                  GFN2-xTB          :
          :  restarted?                      false          :
          :  GBSA solvation                  false          :
          :  PC potential                    false          :
          :  electronic temp.          300.0000000     K    :
          :  accuracy                    1.0000000          :
          :  -> integral cutoff          0.2500000E+02      :
          :  -> integral neglect         0.1000000E-07      :
          :  -> SCF convergence          0.1000000E-05 Eh   :
          :  -> wf. convergence          0.1000000E-03 e    :
          :  Broyden damping             0.4000000          :
          ...................................................

 iter      E             dE          RMSdq      gap      omega  full diag
   1    -45.8452606 -0.458453E+02  0.248E+00   12.66       0.0  T
   2    -45.9583888 -0.113128E+00  0.133E+00   12.41       1.0  T
   3    -45.9598626 -0.147381E-02  0.703E-01   12.39       1.0  T
   4    -45.9601963 -0.333705E-03  0.842E-02   12.40       1.0  T
   5    -45.9602063 -0.998666E-05  0.420E-02   12.40       1.0  T
   6    -45.9602093 -0.307139E-05  0.391E-03   12.40       3.9  T
   7    -45.9602094 -0.106365E-06  0.132E-03   12.40      11.4  T
   8    -45.9602094 -0.141311E-07  0.278E-04   12.40      54.3  T
   9    -45.9602094 -0.193857E-09  0.128E-04   12.40     118.2  T

   *** convergence criteria satisfied after 9 iterations ***

         #    Occupation            Energy/Eh            Energy/eV
      -------------------------------------------------------------
         1        2.0000           -0.6226879             -16.9442
       ...           ...                  ...                  ...
        37        2.0000           -0.4216067             -11.4725
        38        2.0000           -0.4208732             -11.4525
        39        2.0000           -0.4190228             -11.4022
        40        2.0000           -0.4175274             -11.3615
        41        2.0000           -0.4113793             -11.1942
        42        2.0000           -0.4089518             -11.1281
        43        2.0000           -0.4056676             -11.0388 (HOMO)
        44                          0.0501384               1.3643 (LUMO)
        45                          0.0547186               1.4890
        46                          0.0694253               1.8892
        47                          0.0782343               2.1289
        48                          0.0928771               2.5273
       ...                                ...                  ...
        86                          0.3316678               9.0251
      -------------------------------------------------------------
                  HL-Gap            0.4558060 Eh           12.4031 eV
             Fermi-level           -0.1777646 Eh           -4.8372 eV

 SCC (total)                   0 d,  0 h,  0 min,  0.040 sec
 SCC setup                      ...        0 min,  0.001 sec (  1.594%)
 Dispersion                     ...        0 min,  0.000 sec (  0.981%)
 classical contributions        ...        0 min,  0.001 sec (  2.076%)
 integral evaluation            ...        0 min,  0.002 sec (  4.142%)
 iterations                     ...        0 min,  0.031 sec ( 76.972%)
 molecular gradient             ...        0 min,  0.005 sec ( 13.307%)
 printout                       ...        0 min,  0.000 sec (  0.845%)

         :::::::::::::::::::::::::::::::::::::::::::::::::::::
         ::                     SUMMARY                     ::
         :::::::::::::::::::::::::::::::::::::::::::::::::::::
         :: total energy             -45.302352072747 Eh    ::
         :: gradient norm              0.034049964968 Eh/a0 ::
         :: HOMO-LUMO gap             12.403112052306 eV    ::
         ::.................................................::
         :: SCC energy               -45.960209446079 Eh    ::
         :: -> isotropic ES            0.007002960884 Eh    ::
         :: -> anisotropic ES          0.015093244236 Eh    ::
         :: -> anisotropic XC          0.026864199076 Eh    ::
         :: -> dispersion             -0.032093744703 Eh    ::
         :: repulsion energy           0.657229597785 Eh    ::
         :: add. restraining           0.000000000000 Eh    ::
         :: total charge              -0.000000000000 e     ::
         :::::::::::::::::::::::::::::::::::::::::::::::::::::

      ----------------------------------------------------------- 
     |                   =====================                   |
     |                        A N C O P T                        |
     |                   =====================                   |
     |               Approximate Normal Coordinate               |
     |                Rational Function Optimizer                |
      ----------------------------------------------------------- 

          ...................................................
          :                      SETUP                      :
          :.................................................:
          :   optimization level            normal          :
          :   max. optcycles                   200          :
          :   ANC micro-cycles                  20          :
          :   degrees of freedom               126          :
          :.................................................:
          :   RF solver                   davidson          :
          :   write xtbopt.log                true          :
          :   linear?                        false          :
          :   energy convergence         0.5000000E-05 Eh   :
          :   grad. convergence          0.1000000E-02 Eh/α :
          :   maxmium RF displ.          2.0000000          :
          :   Hlow (freq-cutoff)         0.2000000E-01      :
          :   Hmax (freq-cutoff)         5.0000000          :
          :   S6 in model hess.         70.0000000          :
          ...................................................

generating ANC from model Hessian ...
Using Lindh-Hessian (1995)
 Shifting diagonal of input Hessian by   1.936526950322529E-002
 Lowest  eigenvalues of input Hessian
    0.000000    0.000000    0.000000    0.000000    0.000000    0.000000
    0.020000    0.020289    0.020515    0.021310    0.022618    0.023437
    0.023796    0.024152    0.025076    0.025611    0.026028    0.027733
 Highest eigenvalues
    1.226938    1.244637    1.277884    1.294066    1.316573    1.320836
 

........................................................................
.............................. CYCLE    1 ..............................
........................................................................

 iter      E             dE          RMSdq      gap      omega  full diag
   1    -45.9602094 -0.459602E+02  0.191E-05   12.40       0.0  T
   2    -45.9602094 -0.185452E-11  0.105E-05   12.40    1429.0  T
   3    -45.9602094 -0.156319E-12  0.441E-06   12.40    3422.2  T
     SCC iter.                  ...        0 min,  0.033 sec
     gradient                   ...        0 min,  0.013 sec
 * total energy  :   -45.3023521 Eh     change       -0.3275602E-10 Eh
   gradient norm :     0.0340494 Eh/α   predicted     0.0000000E+00 (-100.00%)
   displ. norm   :     0.2006473 α      lambda       -0.4014393E-02
   maximum displ.:     0.0834116 α      in ANC's #58, #54, #37, ...

........................................................................
.............................. CYCLE    2 ..............................
........................................................................

 iter      E             dE          RMSdq      gap      omega  full diag
   1    -45.9735099 -0.459735E+02  0.140E-01   12.55       0.0  T
   2    -45.9735152 -0.529329E-05  0.808E-02   12.55       1.0  T
   3    -45.9735161 -0.940135E-06  0.357E-03   12.55       4.2  T
   4    -45.9735162 -0.687411E-07  0.136E-03   12.55      11.1  T
   5    -45.9735162 -0.343388E-08  0.704E-04   12.55      21.4  T
   6    -45.9735162 -0.816485E-09  0.597E-05   12.55     252.5  T
     SCC iter.                  ...        0 min,  0.006 sec
     gradient                   ...        0 min,  0.005 sec
 * total energy  :   -45.3050133 Eh     change       -0.2661235E-02 Eh
   gradient norm :     0.0149687 Eh/α   predicted    -0.2088017E-02 ( -21.54%)
   displ. norm   :     0.1091219 α      lambda       -0.7661952E-03
   maximum displ.:     0.0371292 α      in ANC's #58, #54, #20, ...

........................................................................
.............................. CYCLE    3 ..............................
........................................................................

 iter      E             dE          RMSdq      gap      omega  full diag
   1    -45.9825043 -0.459825E+02  0.676E-02   12.62       0.0  T
   2    -45.9825076 -0.335515E-05  0.384E-02   12.62       1.0  T
   3    -45.9825078 -0.190334E-06  0.352E-03   12.62       4.3  T
   4    -45.9825079 -0.341834E-07  0.721E-04   12.62      20.9  T
   5    -45.9825079 -0.252894E-08  0.407E-04   12.62      37.0  T
     SCC iter.                  ...        0 min,  0.006 sec
     gradient                   ...        0 min,  0.005 sec
 * total energy  :   -45.3054285 Eh     change       -0.4152130E-03 Eh
   gradient norm :     0.0025968 Eh/α   predicted    -0.3876733E-03 (  -6.63%)
   displ. norm   :     0.0341391 α      lambda       -0.3304508E-04
   maximum displ.:     0.0131205 α      in ANC's #8, #20, #12, ...

........................................................................
.............................. CYCLE    4 ..............................
........................................................................

 iter      E             dE          RMSdq      gap      omega  full diag
   1    -45.9837417 -0.459837E+02  0.746E-03   12.63       0.0  T
   2    -45.9837418 -0.115734E-06  0.423E-03   12.63       3.6  T
   3    -45.9837418 -0.355809E-08  0.817E-04   12.63      18.5  T
   4    -45.9837418 -0.136558E-08  0.157E-04   12.63      96.1  T
     SCC iter.                  ...        0 min,  0.004 sec
     gradient                   ...        0 min,  0.005 sec
 * total energy  :   -45.3054566 Eh     change       -0.2809411E-04 Eh
   gradient norm :     0.0009149 Eh/α   predicted    -0.1788046E-04 ( -36.36%)
   displ. norm   :     0.1214804 α      lambda       -0.5266286E-04
   maximum displ.:     0.0510660 α      in ANC's #8, #2, #12, ...

........................................................................
.............................. CYCLE    5 ..............................
........................................................................

 iter      E             dE          RMSdq      gap      omega  full diag
   1    -45.9851027 -0.459851E+02  0.186E-02   12.65       0.0  T
   2    -45.9851030 -0.314980E-06  0.109E-02   12.65       1.4  T
   3    -45.9851031 -0.250765E-07  0.125E-03   12.65      12.0  T
   4    -45.9851031 -0.114271E-07  0.427E-04   12.65      35.3  T
   5    -45.9851031 -0.978723E-09  0.164E-04   12.65      91.8  T
     SCC iter.                  ...        0 min,  0.005 sec
     gradient                   ...        0 min,  0.013 sec
 * total energy  :   -45.3054980 Eh     change       -0.4140164E-04 Eh
   gradient norm :     0.0036205 Eh/α   predicted    -0.2658143E-04 ( -35.80%)
   displ. norm   :     0.0402762 α      lambda       -0.2076278E-04
   maximum displ.:     0.0179923 α      in ANC's #2, #8, #4, ...

........................................................................
.............................. CYCLE    6 ..............................
........................................................................

 iter      E             dE          RMSdq      gap      omega  full diag
   1    -45.9845433 -0.459845E+02  0.520E-03   12.65       0.0  T
   2    -45.9845433 -0.334804E-07  0.304E-03   12.65       5.0  T
   3    -45.9845433 -0.134730E-08  0.374E-04   12.65      40.3  T
   4    -45.9845433 -0.403723E-09  0.884E-05   12.65     170.5  T
     SCC iter.                  ...        0 min,  0.004 sec
     gradient                   ...        0 min,  0.005 sec
 * total energy  :   -45.3055165 Eh     change       -0.1851617E-04 Eh
   gradient norm :     0.0025176 Eh/α   predicted    -0.1040188E-04 ( -43.82%)
   displ. norm   :     0.1697829 α      lambda       -0.7064282E-04
   maximum displ.:     0.0810770 α      in ANC's #2, #8, #4, ...

........................................................................
.............................. CYCLE    7 ..............................
........................................................................

 iter      E             dE          RMSdq      gap      omega  full diag
   1    -45.9827185 -0.459827E+02  0.205E-02   12.66       0.0  T
   2    -45.9827189 -0.373795E-06  0.120E-02   12.65       1.3  T
   3    -45.9827189 -0.181768E-07  0.117E-03   12.65      12.9  T
   4    -45.9827189 -0.628529E-08  0.340E-04   12.65      44.4  T
   5    -45.9827189 -0.666020E-09  0.150E-04   12.65     100.2  T
     SCC iter.                  ...        0 min,  0.005 sec
     gradient                   ...        0 min,  0.006 sec
 * total energy  :   -45.3055573 Eh     change       -0.4080215E-04 Eh
   gradient norm :     0.0014799 Eh/α   predicted    -0.3636617E-04 ( -10.87%)
   displ. norm   :     0.0809518 α      lambda       -0.1141327E-04
   maximum displ.:     0.0447703 α      in ANC's #2, #3, #4, ...

........................................................................
.............................. CYCLE    8 ..............................
........................................................................

 iter      E             dE          RMSdq      gap      omega  full diag
   1    -45.9826878 -0.459827E+02  0.865E-03   12.65       0.0  T
   2    -45.9826878 -0.178761E-07  0.513E-03   12.65       2.9  T
   3    -45.9826878 -0.301999E-08  0.306E-04   12.65      49.2  T
   4    -45.9826878 -0.108918E-08  0.145E-04   12.65     104.2  T
     SCC iter.                  ...        0 min,  0.006 sec
     gradient                   ...        0 min,  0.005 sec
 * total energy  :   -45.3055705 Eh     change       -0.1312621E-04 Eh
   gradient norm :     0.0017166 Eh/α   predicted    -0.5737320E-05 ( -56.29%)
   displ. norm   :     0.1215124 α      lambda       -0.2035807E-04
   maximum displ.:     0.0732097 α      in ANC's #2, #3, #4, ...

........................................................................
.............................. CYCLE    9 ..............................
........................................................................

 iter      E             dE          RMSdq      gap      omega  full diag
   1    -45.9833935 -0.459834E+02  0.132E-02   12.64       0.0  T
   2    -45.9833936 -0.861595E-07  0.781E-03   12.64       1.9  T
   3    -45.9833936 -0.685873E-08  0.542E-04   12.64      27.8  T
   4    -45.9833936 -0.233619E-08  0.204E-04   12.64      73.8  T
     SCC iter.                  ...        0 min,  0.004 sec
     gradient                   ...        0 min,  0.019 sec
 * total energy  :   -45.3055910 Eh     change       -0.2055095E-04 Eh
   gradient norm :     0.0006446 Eh/α   predicted    -0.1024916E-04 ( -50.13%)
   displ. norm   :     0.1028456 α      lambda       -0.1108156E-04
   maximum displ.:     0.0638194 α      in ANC's #2, #3, #4, ...

........................................................................
.............................. CYCLE   10 ..............................
........................................................................

 iter      E             dE          RMSdq      gap      omega  full diag
   1    -45.9834911 -0.459835E+02  0.111E-02   12.64       0.0  T
   2    -45.9834911 -0.227937E-07  0.656E-03   12.64       2.3  T
   3    -45.9834911 -0.340533E-08  0.344E-04   12.64      43.8  T
   4    -45.9834911 -0.156264E-08  0.156E-04   12.64      96.4  T
     SCC iter.                  ...        0 min,  0.011 sec
     gradient                   ...        0 min,  0.013 sec
 * total energy  :   -45.3056038 Eh     change       -0.1276603E-04 Eh
   gradient norm :     0.0007433 Eh/α   predicted    -0.5569001E-05 ( -56.38%)
   displ. norm   :     0.1512638 α      lambda       -0.1608685E-04
   maximum displ.:     0.0931360 α      in ANC's #2, #3, #4, ...

........................................................................
.............................. CYCLE   11 ..............................
........................................................................

 iter      E             dE          RMSdq      gap      omega  full diag
   1    -45.9837594 -0.459838E+02  0.169E-02   12.64       0.0  T
   2    -45.9837594 -0.341688E-07  0.100E-02   12.64       1.5  T
   3    -45.9837594 -0.865895E-08  0.432E-04   12.64      34.9  T
   4    -45.9837594 -0.148152E-08  0.215E-04   12.64      70.0  T
     SCC iter.                  ...        0 min,  0.004 sec
     gradient                   ...        0 min,  0.015 sec
 * total energy  :   -45.3056214 Eh     change       -0.1758868E-04 Eh
   gradient norm :     0.0010728 Eh/α   predicted    -0.8127900E-05 ( -53.79%)
   displ. norm   :     0.1704104 α      lambda       -0.1588615E-04
   maximum displ.:     0.1027006 α      in ANC's #2, #3, #4, ...

........................................................................
.............................. CYCLE   12 ..............................
........................................................................

 iter      E             dE          RMSdq      gap      omega  full diag
   1    -45.9835995 -0.459836E+02  0.192E-02   12.65       0.0  T
   2    -45.9835995 -0.365166E-07  0.114E-02   12.65       1.3  T
   3    -45.9835996 -0.109354E-07  0.452E-04   12.65      33.4  T
   4    -45.9835996 -0.122625E-08  0.232E-04   12.65      64.9  T
     SCC iter.                  ...        0 min,  0.013 sec
     gradient                   ...        0 min,  0.005 sec
 * total energy  :   -45.3056391 Eh     change       -0.1777804E-04 Eh
   gradient norm :     0.0009285 Eh/α   predicted    -0.8049787E-05 ( -54.72%)
   displ. norm   :     0.1933223 α      lambda       -0.1816525E-04
   maximum displ.:     0.1111129 α      in ANC's #2, #3, #4, ...

........................................................................
.............................. CYCLE   13 ..............................
........................................................................

 iter      E             dE          RMSdq      gap      omega  full diag
   1    -45.9835973 -0.459836E+02  0.223E-02   12.66       0.0  T
   2    -45.9835974 -0.488019E-07  0.132E-02   12.66       1.1  T
   3    -45.9835974 -0.152765E-07  0.511E-04   12.66      29.5  T
   4    -45.9835974 -0.109658E-08  0.251E-04   12.66      60.1  T
     SCC iter.                  ...        0 min,  0.011 sec
     gradient                   ...        0 min,  0.009 sec
 * total energy  :   -45.3056590 Eh     change       -0.1983986E-04 Eh
   gradient norm :     0.0007058 Eh/α   predicted    -0.9237773E-05 ( -53.44%)
   displ. norm   :     0.1994812 α      lambda       -0.1745016E-04
   maximum displ.:     0.1113634 α      in ANC's #2, #3, #4, ...

........................................................................
.............................. CYCLE   14 ..............................
........................................................................

 iter      E             dE          RMSdq      gap      omega  full diag
   1    -45.9832153 -0.459832E+02  0.227E-02   12.67       0.0  T
   2    -45.9832154 -0.638725E-07  0.134E-02   12.67       1.1  T
   3    -45.9832154 -0.166326E-07  0.568E-04   12.67      26.5  T
   4    -45.9832154 -0.170818E-08  0.270E-04   12.67      55.9  T
     SCC iter.                  ...        0 min,  0.008 sec
     gradient                   ...        0 min,  0.015 sec
 * total energy  :   -45.3056779 Eh     change       -0.1895686E-04 Eh
   gradient norm :     0.0008798 Eh/α   predicted    -0.8882359E-05 ( -53.14%)
   displ. norm   :     0.1756123 α      lambda       -0.1649507E-04
   maximum displ.:     0.0902933 α      in ANC's #2, #3, #4, ...

........................................................................
.............................. CYCLE   15 ..............................
........................................................................

 iter      E             dE          RMSdq      gap      omega  full diag
   1    -45.9833553 -0.459834E+02  0.201E-02   12.67       0.0  T
   2    -45.9833553 -0.572908E-07  0.119E-02   12.67       1.3  T
   3    -45.9833553 -0.125336E-07  0.576E-04   12.67      26.2  T
   4    -45.9833553 -0.331542E-08  0.278E-04   12.67      54.2  T
     SCC iter.                  ...        0 min,  0.004 sec
     gradient                   ...        0 min,  0.017 sec
 * total energy  :   -45.3056951 Eh     change       -0.1720765E-04 Eh
   gradient norm :     0.0009444 Eh/α   predicted    -0.8364440E-05 ( -51.39%)
   displ. norm   :     0.1648479 α      lambda       -0.1281878E-04
   maximum displ.:     0.0875947 α      in ANC's #2, #3, #4, ...

........................................................................
.............................. CYCLE   16 ..............................
........................................................................

 iter      E             dE          RMSdq      gap      omega  full diag
   1    -45.9829739 -0.459830E+02  0.187E-02   12.66       0.0  T
   2    -45.9829739 -0.432785E-07  0.111E-02   12.66       1.4  T
   3    -45.9829739 -0.110372E-07  0.505E-04   12.66      29.9  T
   4    -45.9829739 -0.201042E-08  0.248E-04   12.66      60.8  T
     SCC iter.                  ...        0 min,  0.005 sec
     gradient                   ...        0 min,  0.014 sec
 * total energy  :   -45.3057084 Eh     change       -0.1327530E-04 Eh
   gradient norm :     0.0008226 Eh/α   predicted    -0.6487198E-05 ( -51.13%)
   displ. norm   :     0.1029266 α      lambda       -0.1122785E-04
   maximum displ.:     0.0469915 α      in ANC's #3, #5, #2, ...

........................................................................
.............................. CYCLE   17 ..............................
........................................................................

 iter      E             dE          RMSdq      gap      omega  full diag
   1    -45.9836336 -0.459836E+02  0.123E-02   12.66       0.0  T
   2    -45.9836336 -0.448048E-07  0.728E-03   12.66       2.1  T
   3    -45.9836336 -0.485161E-08  0.421E-04   12.66      35.8  T
   4    -45.9836336 -0.203249E-08  0.186E-04   12.66      81.0  T
     SCC iter.                  ...        0 min,  0.009 sec
     gradient                   ...        0 min,  0.008 sec
 * total energy  :   -45.3057191 Eh     change       -0.1064688E-04 Eh
   gradient norm :     0.0006609 Eh/α   predicted    -0.5644726E-05 ( -46.98%)
   displ. norm   :     0.1329420 α      lambda       -0.7938757E-05
   maximum displ.:     0.0704965 α      in ANC's #2, #3, #4, ...

........................................................................
.............................. CYCLE   18 ..............................
........................................................................

 iter      E             dE          RMSdq      gap      omega  full diag
   1    -45.9830078 -0.459830E+02  0.154E-02   12.65       0.0  T
   2    -45.9830078 -0.390843E-07  0.916E-03   12.65       1.6  T
   3    -45.9830078 -0.701414E-08  0.450E-04   12.65      33.5  T
   4    -45.9830078 -0.226120E-08  0.221E-04   12.65      68.3  T
     SCC iter.                  ...        0 min,  0.004 sec
     gradient                   ...        0 min,  0.012 sec
 * total energy  :   -45.3057262 Eh     change       -0.7117816E-05 Eh
   gradient norm :     0.0006468 Eh/α   predicted    -0.4001018E-05 ( -43.79%)
   displ. norm   :     0.0440572 α      lambda       -0.6224941E-05
   maximum displ.:     0.0210399 α      in ANC's #5, #11, #16, ...

........................................................................
.............................. CYCLE   19 ..............................
........................................................................

 iter      E             dE          RMSdq      gap      omega  full diag
   1    -45.9836739 -0.459837E+02  0.705E-03   12.65       0.0  T
   2    -45.9836739 -0.192314E-07  0.417E-03   12.65       3.6  T
   3    -45.9836739 -0.237468E-08  0.282E-04   12.65      53.4  T
   4    -45.9836739 -0.685617E-09  0.122E-04   12.65     123.3  T
     SCC iter.                  ...        0 min,  0.005 sec
     gradient                   ...        0 min,  0.014 sec
 * total energy  :   -45.3057318 Eh     change       -0.5583265E-05 Eh
   gradient norm :     0.0005425 Eh/α   predicted    -0.3116332E-05 ( -44.18%)
   displ. norm   :     0.0517774 α      lambda       -0.3644199E-05
   maximum displ.:     0.0230013 α      in ANC's #3, #7, #4, ...

........................................................................
.............................. CYCLE   20 ..............................
........................................................................

 iter      E             dE          RMSdq      gap      omega  full diag
   1    -45.9835101 -0.459835E+02  0.704E-03   12.66       0.0  T
   2    -45.9835101 -0.859941E-08  0.418E-03   12.66       3.6  T
   3    -45.9835101 -0.146377E-08  0.212E-04   12.66      71.2  T
   4    -45.9835101 -0.491596E-09  0.101E-04   12.66     148.9  T
     SCC iter.                  ...        0 min,  0.012 sec
     gradient                   ...        0 min,  0.005 sec
 * total energy  :   -45.3057356 Eh     change       -0.3857799E-05 Eh
   gradient norm :     0.0003529 Eh/α   predicted    -0.1824734E-05 ( -52.70%)
   displ. norm   :     0.0599651 α      lambda       -0.3804176E-05
   maximum displ.:     0.0303206 α      in ANC's #7, #3, #4, ...

   *** GEOMETRY OPTIMIZATION CONVERGED AFTER 20 ITERATIONS ***

------------------------------------------------------------------------
 total energy gain   :        -0.0033836 Eh       -2.1232 kcal/mol
 total RMSD          :         0.2740941 a0        0.1450 Å
 total power (kW/mol):        -0.4441764 (step)  -18.9003 (real)
------------------------------------------------------------------------

 ANCopt (total)                0 d,  0 h,  0 min,  0.470 sec
 optimizer setup                ...        0 min,  0.001 sec (  0.182%)
 model hessian                  ...        0 min,  0.021 sec (  4.526%)
 ANC generation                 ...        0 min,  0.001 sec (  0.284%)
 coordinate transformation      ...        0 min,  0.000 sec (  0.095%)
 single point calculation       ...        0 min,  0.439 sec ( 93.300%)
 optimization log               ...        0 min,  0.003 sec (  0.596%)
 hessian update                 ...        0 min,  0.001 sec (  0.174%)
 rational function              ...        0 min,  0.002 sec (  0.379%)

================
 final structure:
================
44
 xtb: 6.6.1 (8d0f1dd)
C            2.00120484422855        3.38723100664416        0.49588178902538
C            2.93453969918018        2.25572477246724        0.08149200271897
C            2.19158811407909        0.92722979659192       -0.03220928891181
C            3.11044181712750       -0.21848977410946       -0.45483275880907
C            2.34919391636033       -1.52198312054816       -0.70381952984100
C            1.86882181140784       -2.18261263376199        0.58751295588064
C            0.90482068963876       -3.34910001381083        0.35928374132786
C           -0.38231501391219       -2.98236347598912       -0.38598328521748
C           -1.13090416126271       -1.80502499672768        0.23460762774209
C           -2.42683467419201       -1.49760033034669       -0.51192320260357
C           -3.17304567009405       -0.28792350594953        0.05381496925909
C           -2.42282692424160        1.02899635148356       -0.13984989092190
C           -3.25774448116007        2.23529373835918        0.28328957378840
C           -2.48327608348731        3.53843709999724        0.12414415670512
H            1.55558498675994        3.17769712427789        1.46632662665625
H            2.54280609576439        4.32779693055243        0.56394678599081
H            1.19925974430846        3.50447958258748       -0.23021940378777
H            3.73837144055656        2.15914245903037        0.81501526274922
H            3.39254584661569        2.49719629769188       -0.88054131606908
H            1.73316908422271        0.69975439441919        0.93229006916485
H            1.38793289126029        1.03095138082908       -0.76619462347569
H            3.87227497502574       -0.37865595644727        0.31161217029070
H            3.62440296801195        0.07114568724181       -1.37488117816405
H            2.99466355751947       -2.22269154177533       -1.23898790114396
H            1.49760201541625       -1.30182845872966       -1.34846779757153
H            1.38238364111424       -1.44255569728970        1.22231337701011
H            2.73794920658273       -2.55442608504670        1.13678475828362
H            0.63889843273788       -3.76431276610286        1.33483401683532
H            1.41795020668111       -4.13348353350377       -0.20278826581285
H           -1.03533235394123       -3.85903649045615       -0.39325547296462
H           -0.15081868038968       -2.74858616372155       -1.42712714501986
H           -0.49309553536145       -0.92321007025433        0.20562052500138
H           -1.35687438694489       -2.02667384917202        1.28034023392697
H           -2.19842433040543       -1.31423619717313       -1.56510165714779
H           -3.08205333867923       -2.37128715478572       -0.46603633551882
H           -3.36178071294053       -0.44416518171471        1.11867369238579
H           -4.14332940056194       -0.21324509363807       -0.44416471229059
H           -1.50127404292674        1.02126057907537        0.44469570004310
H           -2.14886578116194        1.13499722982089       -1.19258925721171
H           -4.16747231742177        2.27688477949526       -0.32051157896854
H           -3.55943210675176        2.11737511455613        1.32674430076258
H           -1.58928255607466        3.52903876083180        0.74441533300220
H           -2.17885116050796        3.67612760812766       -0.91147975444504
H           -3.09513327218012        4.38846839697399        0.41712268734595
           -------------------------------------------------
          |                Final Singlepoint                |
           -------------------------------------------------

          ...................................................
          :                      SETUP                      :
          :.................................................:
          :  # basis functions                  86          :
          :  # atomic orbitals                  86          :
          :  # shells                           58          :
          :  # electrons                        86          :
          :  max. iterations                   250          :
          :  Hamiltonian                  GFN2-xTB          :
          :  restarted?                      false          :
          :  GBSA solvation                  false          :
          :  PC potential                    false          :
          :  electronic temp.          300.0000000     K    :
          :  accuracy                    1.0000000          :
          :  -> integral cutoff          0.2500000E+02      :
          :  -> integral neglect         0.1000000E-07      :
          :  -> SCF convergence          0.1000000E-05 Eh   :
          :  -> wf. convergence          0.1000000E-03 e    :
          :  Broyden damping             0.4000000          :
          ...................................................

 iter      E             dE          RMSdq      gap      omega  full diag
   1    -45.9835101 -0.459835E+02  0.309E-05   12.66       0.0  T
   2    -45.9835101 -0.186873E-11  0.176E-05   12.66     854.5  T
   3    -45.9835101 -0.142109E-13  0.472E-06   12.66    3195.8  T

   *** convergence criteria satisfied after 3 iterations ***

         #    Occupation            Energy/Eh            Energy/eV
      -------------------------------------------------------------
         1        2.0000           -0.6234444             -16.9648
       ...           ...                  ...                  ...
        37        2.0000           -0.4224798             -11.4963
        38        2.0000           -0.4195909             -11.4177
        39        2.0000           -0.4192306             -11.4078
        40        2.0000           -0.4172832             -11.3549
        41        2.0000           -0.4115821             -11.1997
        42        2.0000           -0.4092711             -11.1368
        43        2.0000           -0.4074179             -11.0864 (HOMO)
        44                          0.0578299               1.5736 (LUMO)
        45                          0.0621882               1.6922
        46                          0.0772547               2.1022
        47                          0.0865242               2.3544
        48                          0.1025910               2.7916
       ...                                ...                  ...
        86                          0.3348410               9.1115
      -------------------------------------------------------------
                  HL-Gap            0.4652478 Eh           12.6600 eV
             Fermi-level           -0.1747940 Eh           -4.7564 eV

 SCC (total)                   0 d,  0 h,  0 min,  0.025 sec
 SCC setup                      ...        0 min,  0.009 sec ( 37.170%)
 Dispersion                     ...        0 min,  0.000 sec (  0.805%)
 classical contributions        ...        0 min,  0.000 sec (  1.245%)
 integral evaluation            ...        0 min,  0.001 sec (  5.412%)
 iterations                     ...        0 min,  0.003 sec ( 13.026%)
 molecular gradient             ...        0 min,  0.010 sec ( 40.227%)
 printout                       ...        0 min,  0.000 sec (  1.764%)

         :::::::::::::::::::::::::::::::::::::::::::::::::::::
         ::                     SUMMARY                     ::
         :::::::::::::::::::::::::::::::::::::::::::::::::::::
         :: total energy             -45.305735630093 Eh    ::
         :: gradient norm              0.000352838562 Eh/a0 ::
         :: HOMO-LUMO gap             12.660037895198 eV    ::
         ::.................................................::
         :: SCC energy               -45.983510096878 Eh    ::
         :: -> isotropic ES            0.007498630972 Eh    ::
         :: -> anisotropic ES          0.014335146452 Eh    ::
         :: -> anisotropic XC          0.027215000610 Eh    ::
         :: -> dispersion             -0.031798238960 Eh    ::
         :: repulsion energy           0.677178677022 Eh    ::
         :: add. restraining           0.000000000000 Eh    ::
         :: total charge              -0.000000000000 e     ::
         :::::::::::::::::::::::::::::::::::::::::::::::::::::

           ------------------------------------------------- 
          |                Numerical Hessian                |
           ------------------------------------------------- 
step length          :   0.00500
SCC accuracy         :   0.30000
Hessian scale factor :   1.00000
frozen atoms in %    :   0.00000    0
RMS gradient         :   0.00035
estimated CPU  time      0.42 min
estimated wall time      0.12 min

writing file <hessian>.

 projected vibrational frequencies (cm⁻¹)
eigval :       -0.00    -0.00    -0.00     0.00     0.00     0.00
eigval :       17.36    23.45    33.47    52.61    60.99    64.16
eigval :       89.50   105.57   109.61   127.80   172.74   192.86
eigval :      204.40   225.98   232.96   237.93   255.18   277.58
eigval :      298.27   343.31   405.25   405.75   456.59   494.73
eigval :      536.87   750.47   767.87   773.87   785.04   818.49
eigval :      822.79   831.93   884.89   905.29   928.90   938.68
eigval :      941.80   954.90   985.82   994.59  1011.36  1023.97
eigval :     1055.74  1076.70  1080.62  1094.56  1103.15  1111.16
eigval :     1119.14  1119.76  1129.24  1147.08  1150.66  1157.93
eigval :     1186.33  1188.00  1221.91  1226.04  1248.72  1266.19
eigval :     1268.71  1273.90  1278.63  1283.75  1287.04  1290.03
eigval :     1291.52  1296.53  1303.39  1320.35  1346.25  1347.98
eigval :     1354.08  1359.50  1375.67  1376.74  1380.44  1381.43
eigval :     1415.14  1417.67  1485.24  1490.72  1492.20  1493.07
eigval :     1494.54  1496.43  1498.01  1500.18  1500.69  1503.74
eigval :     1504.55  1505.40  1507.65  1508.52  1510.72  1511.82
eigval :     2953.21  2953.96  2954.48  2954.96  2957.43  2959.54
eigval :     2959.92  2961.69  2967.09  2969.24  2969.82  2971.12
eigval :     2973.93  2975.77  2976.82  2977.76  2978.72  2981.67
eigval :     2985.58  2986.57  2989.31  2999.92  3009.14  3020.94
eigval :     3026.74  3027.53  3030.70  3030.95  3037.16  3037.73
           -------------------------------------------------
          |                Property Printout                |
           -------------------------------------------------

    * Orbital Energies and Occupations

         #    Occupation            Energy/Eh            Energy/eV
      -------------------------------------------------------------
         1        2.0000           -0.6234444             -16.9648
       ...           ...                  ...                  ...
        31        2.0000           -0.4455652             -12.1244
        32        2.0000           -0.4388936             -11.9429
        33        2.0000           -0.4345997             -11.8261
        34        2.0000           -0.4328738             -11.7791
        35        2.0000           -0.4289121             -11.6713
        36        2.0000           -0.4272322             -11.6256
        37        2.0000           -0.4224798             -11.4963
        38        2.0000           -0.4195909             -11.4177
        39        2.0000           -0.4192306             -11.4078
        40        2.0000           -0.4172832             -11.3549
        41        2.0000           -0.4115821             -11.1997
        42        2.0000           -0.4092711             -11.1368
        43        2.0000           -0.4074179             -11.0864 (HOMO)
        44                          0.0578299               1.5736 (LUMO)
        45                          0.0621882               1.6922
        46                          0.0772547               2.1022
        47                          0.0865242               2.3544
        48                          0.1025910               2.7916
        49                          0.1074198               2.9230
        50                          0.1141534               3.1063
        51                          0.1186609               3.2289
        52                          0.1248813               3.3982
        53                          0.1262674               3.4359
        54                          0.1312601               3.5718
       ...                                ...                  ...
        86                          0.3348410               9.1115
      -------------------------------------------------------------
                  HL-Gap            0.4652478 Eh           12.6600 eV
             Fermi-level           -0.1747940 Eh           -4.7564 eV

     #   Z          covCN         q      C6AA      α(0)
     1   6 C        3.752    -0.101    22.487     6.762
     2   6 C        3.801    -0.053    21.526     6.606
     3   6 C        3.803    -0.057    21.591     6.615
     4   6 C        3.802    -0.058    21.625     6.621
     5   6 C        3.801    -0.059    21.635     6.622
     6   6 C        3.801    -0.059    21.628     6.621
     7   6 C        3.800    -0.058    21.609     6.619
     8   6 C        3.801    -0.057    21.596     6.616
     9   6 C        3.802    -0.061    21.663     6.626
    10   6 C        3.802    -0.057    21.604     6.617
    11   6 C        3.802    -0.058    21.618     6.620
    12   6 C        3.803    -0.058    21.625     6.621
    13   6 C        3.801    -0.053    21.524     6.605
    14   6 C        3.752    -0.101    22.498     6.764
    15   1 H        0.925     0.031     2.567     2.505
    16   1 H        0.925     0.032     2.564     2.504
    17   1 H        0.925     0.034     2.527     2.486
    18   1 H        0.924     0.027     2.624     2.533
    19   1 H        0.924     0.027     2.625     2.534
    20   1 H        0.924     0.029     2.606     2.525
    21   1 H        0.924     0.030     2.584     2.514
    22   1 H        0.924     0.028     2.618     2.530
    23   1 H        0.924     0.027     2.629     2.536
    24   1 H        0.924     0.026     2.645     2.544
    25   1 H        0.924     0.037     2.490     2.468
    26   1 H        0.925     0.035     2.516     2.481
    27   1 H        0.924     0.026     2.650     2.546
    28   1 H        0.924     0.027     2.623     2.533
    29   1 H        0.924     0.027     2.628     2.535
    30   1 H        0.924     0.026     2.650     2.545
    31   1 H        0.924     0.028     2.612     2.527
    32   1 H        0.925     0.041     2.437     2.441
    33   1 H        0.924     0.028     2.620     2.531
    34   1 H        0.924     0.028     2.621     2.532
    35   1 H        0.924     0.026     2.645     2.543
    36   1 H        0.924     0.028     2.610     2.526
    37   1 H        0.924     0.027     2.626     2.534
    38   1 H        0.924     0.033     2.545     2.495
    39   1 H        0.924     0.029     2.599     2.521
    40   1 H        0.924     0.027     2.630     2.536
    41   1 H        0.924     0.028     2.620     2.531
    42   1 H        0.925     0.034     2.530     2.487
    43   1 H        0.925     0.032     2.557     2.501
    44   1 H        0.925     0.032     2.563     2.504

 Mol. C6AA /au·bohr⁶  :      12855.281276
 Mol. C8AA /au·bohr⁸  :     268493.367635
 Mol. α(0) /au        :        168.463534


Wiberg/Mayer (AO) data.
largest (>0.10) Wiberg bond orders for each atom

 ---------------------------------------------------------------------------
     #   Z sym  total        # sym  WBO       # sym  WBO       # sym  WBO
 ---------------------------------------------------------------------------
     1   6 C    3.997 --     2 C    1.019    15 H    0.988    16 H    0.988
                            17 H    0.988
     2   6 C    3.998 --     1 C    1.019     3 C    1.008    18 H    0.979
                            19 H    0.979
     3   6 C    3.998 --     4 C    1.008     2 C    1.008    21 H    0.976
                            20 H    0.974
     4   6 C    3.998 --     3 C    1.008     5 C    1.006    22 H    0.978
                            23 H    0.978
     5   6 C    3.997 --     6 C    1.009     4 C    1.006    24 H    0.979
                            25 H    0.972
     6   6 C    3.997 --     5 C    1.009     7 C    1.007    27 H    0.978
                            26 H    0.971
     7   6 C    3.997 --     6 C    1.007     8 C    1.006    28 H    0.978
                            29 H    0.978
     8   6 C    3.997 --     9 C    1.008     7 C    1.006    30 H    0.977
                            31 H    0.975
     9   6 C    3.997 --     8 C    1.008    10 C    1.008    33 H    0.978
                            32 H    0.970
    10   6 C    3.997 --     9 C    1.008    11 C    1.006    35 H    0.978
                            34 H    0.977
    11   6 C    3.997 --    12 C    1.008    10 C    1.006    36 H    0.978
                            37 H    0.977
    12   6 C    3.997 --    11 C    1.008    13 C    1.008    39 H    0.977
                            38 H    0.975
    13   6 C    3.998 --    14 C    1.019    12 C    1.008    41 H    0.979
                            40 H    0.979
    14   6 C    3.997 --    13 C    1.019    43 H    0.988    44 H    0.988
                            42 H    0.988
    15   1 H    0.999 --     1 C    0.988
    16   1 H    0.999 --     1 C    0.988
    17   1 H    0.999 --     1 C    0.988
    18   1 H    0.999 --     2 C    0.979
    19   1 H    0.999 --     2 C    0.979
    20   1 H    0.999 --     3 C    0.974
    21   1 H    0.999 --     3 C    0.976
    22   1 H    0.999 --     4 C    0.978
    23   1 H    0.999 --     4 C    0.978
    24   1 H    0.999 --     5 C    0.979
    25   1 H    0.999 --     5 C    0.972
    26   1 H    0.999 --     6 C    0.971
    27   1 H    0.999 --     6 C    0.978
    28   1 H    0.999 --     7 C    0.978
    29   1 H    0.999 --     7 C    0.978
    30   1 H    0.999 --     8 C    0.977
    31   1 H    0.999 --     8 C    0.975
    32   1 H    0.998 --     9 C    0.970
    33   1 H    0.999 --     9 C    0.978
    34   1 H    0.999 --    10 C    0.977
    35   1 H    0.999 --    10 C    0.978
    36   1 H    0.999 --    11 C    0.978
    37   1 H    0.999 --    11 C    0.977
    38   1 H    0.999 --    12 C    0.975
    39   1 H    0.999 --    12 C    0.977
    40   1 H    0.999 --    13 C    0.979
    41   1 H    0.999 --    13 C    0.979
    42   1 H    0.999 --    14 C    0.988
    43   1 H    0.999 --    14 C    0.988
    44   1 H    0.999 --    14 C    0.988
 ---------------------------------------------------------------------------

Topologies differ in total number of bonds
Writing topology from bond orders to xtbtopo.mol

molecular dipole:
                 x           y           z       tot (Debye)
 q only:        0.007       0.037       0.001
   full:        0.005       0.030       0.002       0.078
molecular quadrupole (traceless):
                xx          xy          yy          xz          yz          zz
 q only:       -0.444      -0.035       0.311      -0.098       0.108       0.134
  q+dip:       -0.477       0.123      -2.194       0.204      -0.740       2.671
   full:       -0.383       0.057      -0.935       0.080      -0.334       1.318

           -------------------------------------------------
          |                Geometry Summary                 |
           -------------------------------------------------

      molecular mass/u    :      198.3885251
   center of mass at/Å    :        0.0033061       0.0014597       0.0023168
  moments of inertia/u·Å² :        0.1012573E+04   0.1229064E+04   0.2140015E+04
rotational constants/cm⁻¹ :        0.1664832E-01   0.1371583E-01   0.7877342E-02

 * 43 selected distances

     #   Z          #   Z                                           value/Å
     1   6 C        2   6 C                                       1.5241849
     2   6 C        3   6 C                                       1.5263697
     3   6 C        4   6 C                                       1.5282593
     4   6 C        5   6 C                                       1.5298981
     5   6 C        6   6 C                                       1.5279819
     6   6 C        7   6 C                                       1.5303856
     7   6 C        8   6 C                                       1.5318738 (max)
     8   6 C        9   6 C                                       1.5269725
     9   6 C       10   6 C                                       1.5268446
    10   6 C       11   6 C                                       1.5297742
    11   6 C       12   6 C                                       1.5279439
    12   6 C       13   6 C                                       1.5268556
    13   6 C       14   6 C                                       1.5242413
     1   6 C       15   1 H                                       1.0882302
     1   6 C       16   1 H                                       1.0874876 (min)
     1   6 C       17   1 H                                       1.0881573
     2   6 C       18   1 H                                       1.0924881
     2   6 C       19   1 H                                       1.0925138
     3   6 C       20   1 H                                       1.0918573
     3   6 C       21   1 H                                       1.0933227
     4   6 C       22   1 H                                       1.0924656
     4   6 C       23   1 H                                       1.0929474
     5   6 C       24   1 H                                       1.0927162
     5   6 C       25   1 H                                       1.0905267
     6   6 C       26   1 H                                       1.0896229
     6   6 C       27   1 H                                       1.0933103
     7   6 C       28   1 H                                       1.0930759
     7   6 C       29   1 H                                       1.0929248
     8   6 C       30   1 H                                       1.0931790
     8   6 C       31   1 H                                       1.0918897
     9   6 C       32   1 H                                       1.0886863
     9   6 C       33   1 H                                       1.0925876
    10   6 C       34   1 H                                       1.0931508
    10   6 C       35   1 H                                       1.0930444
    11   6 C       36   1 H                                       1.0926833
    11   6 C       37   1 H                                       1.0931658
    12   6 C       38   1 H                                       1.0913356
    12   6 C       39   1 H                                       1.0929553
    13   6 C       40   1 H                                       1.0926622
    13   6 C       41   1 H                                       1.0925741
    14   6 C       42   1 H                                       1.0881403
    14   6 C       43   1 H                                       1.0881867
    14   6 C       44   1 H                                       1.0875473

 * 2 distinct bonds (by element types)

   Z      Z             #   av. dist./Å        max./Å        min./Å
   1 H    6 C          30     1.0914478     1.0933227     1.0874876
   6 C    6 C          13     1.5278143     1.5318738     1.5241849

           -------------------------------------------------
          |               Frequency Printout                |
           -------------------------------------------------
 projected vibrational frequencies (cm⁻¹)
eigval :       -0.00    -0.00    -0.00     0.00     0.00     0.00
eigval :       17.36    23.45    33.47    52.61    60.99    64.16
eigval :       89.50   105.57   109.61   127.80   172.74   192.86
eigval :      204.40   225.98   232.96   237.93   255.18   277.58
eigval :      298.27   343.31   405.25   405.75   456.59   494.73
eigval :      536.87   750.47   767.87   773.87   785.04   818.49
eigval :      822.79   831.93   884.89   905.29   928.90   938.68
eigval :      941.80   954.90   985.82   994.59  1011.36  1023.97
eigval :     1055.74  1076.70  1080.62  1094.56  1103.15  1111.16
eigval :     1119.14  1119.76  1129.24  1147.08  1150.66  1157.93
eigval :     1186.33  1188.00  1221.91  1226.04  1248.72  1266.19
eigval :     1268.71  1273.90  1278.63  1283.75  1287.04  1290.03
eigval :     1291.52  1296.53  1303.39  1320.35  1346.25  1347.98
eigval :     1354.08  1359.50  1375.67  1376.74  1380.44  1381.43
eigval :     1415.14  1417.67  1485.24  1490.72  1492.20  1493.07
eigval :     1494.54  1496.43  1498.01  1500.18  1500.69  1503.74
eigval :     1504.55  1505.40  1507.65  1508.52  1510.72  1511.82
eigval :     2953.21  2953.96  2954.48  2954.96  2957.43  2959.54
eigval :     2959.92  2961.69  2967.09  2969.24  2969.82  2971.12
eigval :     2973.93  2975.77  2976.82  2977.76  2978.72  2981.67
eigval :     2985.58  2986.57  2989.31  2999.92  3009.14  3020.94
eigval :     3026.74  3027.53  3030.70  3030.95  3037.16  3037.73
 reduced masses (amu)
   1:  9.81   2: 10.28   3:  9.99   4: 10.33   5:  9.94   6: 10.32   7:  9.79   8:  9.12
   9:  7.97  10:  7.59  11:  5.34  12:  7.88  13:  8.35  14:  7.09  15:  8.22  16:  8.00
  17:  8.42  18:  7.09  19:  7.15  20:  6.70  21:  2.75  22:  2.89  23:  6.97  24:  8.84
  25:  8.83  26:  8.17  27:  8.53  28:  8.46  29:  8.54  30:  8.96  31:  8.61  32:  2.47
  33:  2.14  34:  1.94  35:  2.39  36:  3.18  37:  3.15  38:  3.94  39:  4.65  40:  6.25
  41:  5.19  42:  5.70  43:  5.30  44:  5.12  45:  5.78  46:  7.35  47:  5.45  48:  4.68
  49:  6.49  50:  6.61  51:  8.34  52:  5.17  53:  8.22  54:  7.71  55:  7.11  56:  7.52
  57:  7.49  58:  8.35  59:  7.94  60:  7.13  61:  5.76  62:  5.99  63:  4.74  64:  4.59
  65:  3.88  66:  3.63  67:  3.36  68:  3.23  69:  2.91  70:  2.28  71:  2.61  72:  2.16
  73:  2.60  74:  2.50  75:  2.22  76:  3.26  77:  4.30  78:  4.29  79:  4.28  80:  4.53
  81:  5.26  82:  5.14  83:  5.28  84:  5.27  85:  3.18  86:  3.16  87:  1.94  88:  1.89
  89:  1.90  90:  1.93  91:  1.97  92:  1.92  93:  1.95  94:  1.85  95:  1.86  96:  1.78
  97:  1.65  98:  1.59  99:  1.72 100:  1.80 101:  1.88 102:  1.62 103:  1.89 104:  1.93
 105:  1.90 106:  1.89 107:  1.83 108:  1.91 109:  1.90 110:  1.94 111:  1.76 112:  1.74
 113:  1.77 114:  1.71 115:  1.52 116:  1.56 117:  1.53 118:  1.53 119:  1.71 120:  1.65
 121:  1.60 122:  1.62 123:  1.59 124:  1.68 125:  1.65 126:  1.69 127:  1.95 128:  1.95
 129:  1.81 130:  1.84 131:  1.39 132:  1.35
 IR intensities (km·mol⁻¹)
   1:  0.00   2:  0.00   3:  0.00   4:  0.00   5:  0.00   6:  0.00   7:  0.00   8:  0.00
   9:  0.00  10:  0.02  11:  0.00  12:  0.01  13:  0.01  14:  0.01  15:  0.02  16:  0.00
  17:  0.18  18:  0.06  19:  0.04  20:  0.25  21:  0.02  22:  0.04  23:  0.38  24:  0.17
  25:  0.05  26:  0.16  27:  0.02  28:  0.06  29:  0.79  30:  0.09  31:  0.65  32: 11.51
  33: 19.93  34:  2.92  35:  4.74  36:  0.66  37:  1.06  38:  0.52  39:  0.77  40:  0.38
  41:  2.20  42:  3.73  43:  3.36  44:  2.46  45:  1.92  46:  1.02  47:  1.43  48:  0.44
  49:  0.16  50:  0.82  51:  1.35  52:  0.20  53:  0.07  54:  0.22  55:  1.57  56:  0.17
  57:  0.59  58:  1.02  59:  0.39  60:  0.17  61:  0.73  62:  0.68  63:  0.74  64:  0.64
  65:  0.74  66:  0.02  67:  0.35  68:  0.08  69:  0.42  70:  0.11  71:  0.03  72:  0.52
  73:  1.21  74:  0.20  75:  0.32  76:  0.57  77:  0.03  78:  0.12  79:  0.02  80:  3.40
  81:  0.02  82:  4.82  83:  1.51  84:  0.97  85:  0.51  86:  0.91  87:  0.18  88:  0.17
  89:  0.34  90:  0.55  91:  0.06  92:  0.04  93:  0.06  94:  0.34  95:  0.49  96:  0.36
  97:  1.74  98:  0.84  99:  0.99 100:  2.53 101:  1.01 102:  1.94 103:  6.57 104:  5.69
 105: 18.13 106: 10.76 107: 11.87 108:  2.11 109: 19.55 110:  5.76 111: 20.76 112: 11.08
 113: 61.66 114: 24.59 115: 36.75 116: 21.81 117: 24.97 118: 53.11 119: 67.83 120:102.50
 121: 99.46 122:183.80 123: 55.56 124: 85.06 125: 76.47 126: 63.88 127: 41.64 128: 87.34
 129: 63.47 130: 55.95 131: 61.99 132:  8.24
 Raman intensities (amu)
   1:  0.00   2:  0.00   3:  0.00   4:  0.00   5:  0.00   6:  0.00   7:  0.00   8:  0.00
   9:  0.00  10:  0.00  11:  0.00  12:  0.00  13:  0.00  14:  0.00  15:  0.00  16:  0.00
  17:  0.00  18:  0.00  19:  0.00  20:  0.00  21:  0.00  22:  0.00  23:  0.00  24:  0.00
  25:  0.00  26:  0.00  27:  0.00  28:  0.00  29:  0.00  30:  0.00  31:  0.00  32:  0.00
  33:  0.00  34:  0.00  35:  0.00  36:  0.00  37:  0.00  38:  0.00  39:  0.00  40:  0.00
  41:  0.00  42:  0.00  43:  0.00  44:  0.00  45:  0.00  46:  0.00  47:  0.00  48:  0.00
  49:  0.00  50:  0.00  51:  0.00  52:  0.00  53:  0.00  54:  0.00  55:  0.00  56:  0.00
  57:  0.00  58:  0.00  59:  0.00  60:  0.00  61:  0.00  62:  0.00  63:  0.00  64:  0.00
  65:  0.00  66:  0.00  67:  0.00  68:  0.00  69:  0.00  70:  0.00  71:  0.00  72:  0.00
  73:  0.00  74:  0.00  75:  0.00  76:  0.00  77:  0.00  78:  0.00  79:  0.00  80:  0.00
  81:  0.00  82:  0.00  83:  0.00  84:  0.00  85:  0.00  86:  0.00  87:  0.00  88:  0.00
  89:  0.00  90:  0.00  91:  0.00  92:  0.00  93:  0.00  94:  0.00  95:  0.00  96:  0.00
  97:  0.00  98:  0.00  99:  0.00 100:  0.00 101:  0.00 102:  0.00 103:  0.00 104:  0.00
 105:  0.00 106:  0.00 107:  0.00 108:  0.00 109:  0.00 110:  0.00 111:  0.00 112:  0.00
 113:  0.00 114:  0.00 115:  0.00 116:  0.00 117:  0.00 118:  0.00 119:  0.00 120:  0.00
 121:  0.00 122:  0.00 123:  0.00 124:  0.00 125:  0.00 126:  0.00 127:  0.00 128:  0.00
 129:  0.00 130:  0.00 131:  0.00 132:  0.00
 output can be read by thermo (or use thermo option).
 writing <g98.out> molden fake output.
 recommended (thermochemical) frequency scaling factor: 1.0
           -------------------------------------------------
          |             Thermodynamic Functions             |
           -------------------------------------------------

Molecule has no symmetry elements
It seems to be the C1 point group
c1  symmetry found (for desy threshold:  0.10E+00) used in thermo

          ...................................................
          :                      SETUP                      :
          :.................................................:
          :  # frequencies                         126      :
          :  # imaginary freq.                       0      :
          :  linear?                             false      :
          :  only rotor calc.                    false      :
          :  symmetry                               c1      :
          :  rotational number                       1      :
          :  scaling factor                  1.0000000      :
          :  rotor cutoff                   50.0000000 cm⁻¹ :
          :  imag. cutoff                  -20.0000000 cm⁻¹ :
          :.................................................:

    mode    ω/cm⁻¹     T·S(HO)/kcal·mol⁻¹    T·S(FR)/kcal·mol⁻¹   T·S(vib)
   ------------------------------------------------------------------------
       1     17.36    -2.06168 (  1.43%)    -1.36968 ( 98.57%)    -1.37960
       2     23.45    -1.88371 (  4.62%)    -1.28067 ( 95.38%)    -1.30851
       3     33.47    -1.67327 ( 16.73%)    -1.17533 ( 83.27%)    -1.25861
       4     52.61    -1.40627 ( 55.08%)    -1.04139 ( 44.92%)    -1.24236
       5     60.99    -1.31928 ( 68.89%)    -0.99763 ( 31.11%)    -1.21920
       6     64.16    -1.28949 ( 73.05%)    -0.98263 ( 26.95%)    -1.20681
       7     89.50    -1.09449 ( 91.12%)    -0.88403 (  8.88%)    -1.07581
       8    105.57    -0.99842 ( 95.21%)    -0.83511 (  4.79%)    -0.99060
       9    109.61    -0.97667 ( 95.85%)    -0.82399 (  4.15%)    -0.97033
      10    127.80    -0.88816 ( 97.71%)    -0.77852 (  2.29%)    -0.88565
      11    172.74    -0.71720 ( 99.30%)    -0.68926 (  0.70%)    -0.71700
      12    192.86    -0.65597 ( 99.55%)    -0.65662 (  0.45%)    -0.65597
      13    204.40    -0.62407 ( 99.64%)    -0.63941 (  0.36%)    -0.62412
      14    225.98    -0.56965 ( 99.76%)    -0.60967 (  0.24%)    -0.56975
      15    232.96    -0.55337 ( 99.79%)    -0.60066 (  0.21%)    -0.55347
      16    237.93    -0.54213 ( 99.81%)    -0.59441 (  0.19%)    -0.54223
      17    255.18    -0.50521 ( 99.85%)    -0.57367 (  0.15%)    -0.50531
      18    277.58    -0.46170 ( 99.89%)    -0.54875 (  0.11%)    -0.46179
      19    298.27    -0.42534 ( 99.92%)    -0.52746 (  0.08%)    -0.42543
   ------------------------------------------------------------------------

   temp. (K)  partition function   enthalpy   heat capacity  entropy
                                   cal/mol     cal/K/mol   cal/K/mol   J/K/mol
 298.15  VIB  0.241E+09             9999.412     57.263     65.005
         ROT  0.394E+07              888.752      2.981     33.162
         INT  0.950E+15            10888.164     60.244     98.167
         TR   0.270E+28             1481.254      4.968     41.741
         TOT                       12369.4179    65.2122   139.9079   585.3745

       T/K    H(0)-H(T)+PV         H(T)/Eh          T*S/Eh         G(T)/Eh
   ------------------------------------------------------------------------
    298.15    0.197119E-01    0.433109E+00    0.664747E-01    0.366634E+00
   ------------------------------------------------------------------------

         :::::::::::::::::::::::::::::::::::::::::::::::::::::
         ::                  THERMODYNAMIC                  ::
         :::::::::::::::::::::::::::::::::::::::::::::::::::::
         :: total free energy         -44.939101761548 Eh   ::
         ::.................................................::
         :: total energy              -45.305735630094 Eh   ::
         :: zero point energy           0.413396687783 Eh   ::
         :: G(RRHO) w/o ZPVE           -0.046762819237 Eh   ::
         :: G(RRHO) contrib.            0.366633868545 Eh   ::
         :::::::::::::::::::::::::::::::::::::::::::::::::::::
 
 normal mode %tage of torsion character
   1:  0.00   2:  0.00   3:  0.00   4:  0.00   5:  0.00   6:  0.00   7:  0.28   8:  0.37
   9:  0.49  10:  0.54  11:  0.66  12:  0.58  13:  0.50  14:  0.62  15:  0.55  16:  0.54
  17:  0.44  18:  0.58  19:  0.56  20:  0.65  21:  0.85  22:  0.84  23:  0.63  24:  0.30
  25:  0.28  26:  0.37  27:  0.12  28:  0.13  29:  0.18  30:  0.09  31:  0.15  32:  0.57
  33:  0.48  34:  0.50  35:  0.45  36:  0.51  37:  0.50  38:  0.44  39:  0.46  40:  0.39
  41:  0.34  42:  0.17  43:  0.27  44:  0.26  45:  0.28  46:  0.31  47:  0.32  48:  0.31
  49:  0.30  50:  0.24  51:  0.20  52:  0.30  53:  0.15  54:  0.13  55:  0.11  56:  0.11
  57:  0.10  58:  0.20  59:  0.17  60:  0.34  61:  0.38  62:  0.36  63:  0.43  64:  0.48
  65:  0.27  66:  0.31  67:  0.21  68:  0.16  69:  0.18  70:  0.12  71:  0.18  72:  0.17
  73:  0.10  74:  0.08  75:  0.09  76:  0.11  77:  0.08  78:  0.08  79:  0.08  80:  0.08
  81:  0.07  82:  0.07  83:  0.07  84:  0.06  85:  0.00  86:  0.00  87:  0.60  88:  0.66
  89:  0.66  90:  0.62  91:  0.62  92:  0.66  93:  0.61  94:  0.62  95:  0.65  96:  0.66
  97:  0.82  98:  0.86  99:  0.77 100:  0.72 101:  0.65 102:  0.86 103:  0.38 104:  0.25
 105:  0.28 106:  0.29 107:  0.28 108:  0.20 109:  0.16 110:  0.28 111:  0.08 112:  0.03
 113:  0.09 114:  0.04 115:  0.02 116:  0.01 117:  0.01 118:  0.01 119:  0.02 120:  0.01
 121:  0.01 122:  0.01 123:  0.02 124:  0.03 125:  0.07 126:  0.08 127:  0.07 128:  0.05
 129:  0.03 130:  0.03 131:  0.00 132:  0.00
 recommended # of modes for mode following           4

optimized geometry written to: xtbopt.xyz


           -------------------------------------------------
          | TOTAL ENERGY              -45.305735630094 Eh   |
          | TOTAL ENTHALPY            -44.872627020092 Eh   |
          | TOTAL FREE ENERGY         -44.939101761548 Eh   |
          | GRADIENT NORM               0.000352836059 Eh/α |
          | HOMO-LUMO GAP              12.660038111308 eV   |
           -------------------------------------------------

------------------------------------------------------------------------
 * finished run on 2024/04/23 at 12:10:39.073     
------------------------------------------------------------------------
 total:
 * wall-time:     0 d,  0 h,  0 min,  2.687 sec
 *  cpu-time:     0 d,  0 h,  0 min,  9.238 sec
 * ratio c/w:     3.438 speedup
 SCF:
 * wall-time:     0 d,  0 h,  0 min,  0.041 sec
 *  cpu-time:     0 d,  0 h,  0 min,  0.139 sec
 * ratio c/w:     3.390 speedup
 ANC optimizer:
 * wall-time:     0 d,  0 h,  0 min,  0.503 sec
 *  cpu-time:     0 d,  0 h,  0 min,  1.708 sec
 * ratio c/w:     3.399 speedup
 analytical hessian:
 * wall-time:     0 d,  0 h,  0 min,  2.062 sec
 *  cpu-time:     0 d,  0 h,  0 min,  7.181 sec
 * ratio c/w:     3.482 speedup

