44
 energy: -45.302352072779 gnorm: 0.034049380944 xtb: 6.6.1 (8d0f1dd)
C            1.96100400000000        3.43995100000000        0.49403400000000
C            2.86143200000000        2.30950500000000        0.02040200000000
C            2.13003100000000        0.96913000000000       -0.05940200000000
C            3.02583700000000       -0.17859300000000       -0.53281100000000
C            2.26975700000000       -1.50001700000000       -0.70416800000000
C            1.82304900000000       -2.12353300000000        0.62008200000000
C            0.90635600000000       -3.34047700000000        0.45113000000000
C           -0.38019000000000       -3.04652200000000       -0.32981000000000
C           -1.19002200000000       -1.88500400000000        0.24691700000000
C           -2.42173700000000       -1.53450100000000       -0.58714200000000
C           -3.17435100000000       -0.30591700000000       -0.06751400000000
C           -2.35001900000000        0.98246000000000       -0.13112200000000
C           -3.13933700000000        2.22441100000000        0.28407700000000
C           -2.29776000000000        3.49063800000000        0.24496400000000
H            1.55746300000000        3.23401200000000        1.48769800000000
H            2.49123200000000        4.39409600000000        0.54616700000000
H            1.10981800000000        3.57406900000000       -0.17674400000000
H            3.72893100000000        2.21063000000000        0.68702400000000
H            3.28625100000000        2.55083800000000       -0.96355400000000
H            1.69950200000000        0.73253100000000        0.92093500000000
H            1.26767900000000        1.06301400000000       -0.73181900000000
H            3.85611300000000       -0.31557800000000        0.17110200000000
H            3.49814800000000        0.10883200000000       -1.48183500000000
H            2.88322500000000       -2.22639500000000       -1.25368700000000
H            1.39782700000000       -1.32193400000000       -1.34413600000000
H            1.31362000000000       -1.36886100000000        1.22933000000000
H            2.71022200000000       -2.39526200000000        1.20777400000000
H            0.64159500000000       -3.73830300000000        1.43993000000000
H            1.46342700000000       -4.14654700000000       -0.04435500000000
H           -1.01148700000000       -3.94397400000000       -0.37363900000000
H           -0.13598600000000       -2.82866200000000       -1.37668200000000
H           -0.54823100000000       -1.00110200000000        0.32197500000000
H           -1.48683000000000       -2.11101300000000        1.27867700000000
H           -2.11633900000000       -1.35867100000000       -1.62639200000000
H           -3.09090000000000       -2.40417300000000       -0.62811600000000
H           -3.49816300000000       -0.48185900000000        0.96592000000000
H           -4.10171000000000       -0.16583500000000       -0.63878600000000
H           -1.46198100000000        0.89327700000000        0.50625800000000
H           -1.95814100000000        1.11884300000000       -1.14714100000000
H           -4.01761000000000        2.33186900000000       -0.36687900000000
H           -3.55005500000000        2.07367900000000        1.29171500000000
H           -1.44407700000000        3.41813700000000        0.92207400000000
H           -1.89911200000000        3.66931600000000       -0.75585000000000
H           -2.87104200000000        4.37523200000000        0.53319700000000
44
 energy: -45.305013307690 gnorm: 0.014968720359 xtb: 6.6.1 (8d0f1dd)
C            1.95984111860519        3.43142961761049        0.49178885381476
C            2.86469252198189        2.30385047693106        0.01829419517708
C            2.12627595012822        0.96895763522097       -0.05820001088178
C            3.02466788130845       -0.17721215445161       -0.52471551880260
C            2.26597466340405       -1.49354833282206       -0.70287194145664
C            1.82125949651094       -2.11835814404937        0.61960789206562
C            0.90324277187843       -3.33108608653505        0.44638971024570
C           -0.38312920873422       -3.03974158788461       -0.33262957073283
C           -1.18896840691438       -1.88028759388635        0.24984964854719
C           -2.41696192996790       -1.53041918043529       -0.58737272520910
C           -3.16785604802515       -0.30435599546513       -0.06298219303705
C           -2.34572703021219        0.98321842505499       -0.13247083287005
C           -3.14316036647278        2.21813323606803        0.28282329761082
C           -2.29717375392999        3.48202865986414        0.24295241074722
H            1.56493520778385        3.22139905554277        1.48590592900831
H            2.50118225272058        4.37588968350366        0.53930461329453
H            1.11506658460228        3.56199139563941       -0.18444682928525
H            3.71861840914040        2.20730989710042        0.69792318681378
H            3.27214342251426        2.54995576153263       -0.96850564439156
H            1.71381343823757        0.73749812736959        0.92855292293282
H            1.27730645791147        1.06602277737141       -0.74418506945515
H            3.84497300691865       -0.31631481845687        0.18728479562280
H            3.47995088740443        0.10325468566484       -1.48107952421009
H            2.89514869813598       -2.21237827210034       -1.23928138764218
H            1.39402656087731       -1.30492416734606       -1.33452498834533
H            1.30840094659995       -1.36941952476676        1.22686404074017
H            2.70828301250354       -2.41708425402658        1.18966214560031
H            0.64023392872402       -3.71433513143462        1.43863323024495
H            1.45335752598665       -4.12981533836172       -0.06323329534677
H           -1.00425030528567       -3.94221796953415       -0.35039537211079
H           -0.13561726277549       -2.81823175270087       -1.37527981054735
H           -0.54717647499268       -0.99990478259116        0.30483771577618
H           -1.49533621286364       -2.12143956886345        1.27332053187193
H           -2.10678722482287       -1.34563601845471       -1.62175692092674
H           -3.09507445224803       -2.39069406215631       -0.61088176005882
H           -3.47966693094111       -0.48158698306534        0.97181630799054
H           -4.08360493516505       -0.16982403246766       -0.64943754798757
H           -1.47086554073631        0.89846352531658        0.51870182863566
H           -1.97243024115604        1.11997200333602       -1.15329839306687
H           -4.00882118163616        2.33273374639058       -0.37883385184718
H           -3.53582053554426        2.07197766075024        1.29517192774904
H           -1.44950384970179        3.40437845759359        0.92380040182758
H           -1.90709470743347        3.65674984254094       -0.75976947255879
H           -2.88092914431891        4.35533808145367        0.53246507445348
44
 energy: -45.305428520670 gnorm: 0.002596780098 xtb: 6.6.1 (8d0f1dd)
C            1.95986502692866        3.42824443180084        0.49043991515262
C            2.86759538512976        2.30055749698365        0.01676217680645
C            2.12490277244231        0.96893689841637       -0.05597946486455
C            3.02503416297798       -0.17559851136714       -0.52006981111162
C            2.26527343863167       -1.49019435564999       -0.70171924667862
C            1.82272061397626       -2.11719665807250        0.61946029812950
C            0.90143792731436       -3.32657982220734        0.44282456537077
C           -0.38669725989470       -3.03652012950689       -0.33338966596096
C           -1.18810733580057       -1.87623165178359        0.25132271524008
C           -2.41535993653327       -1.52860263453221       -0.58694420720681
C           -3.16523415249648       -0.30285634004595       -0.06105695457511
C           -2.34326898057506        0.98369456949028       -0.13326159873832
C           -3.14675555943096        2.21377826149153        0.28152793855943
C           -2.29866973914292        3.47856248331629        0.24139360250258
H            1.56897297021646        3.21374060164110        1.48343014809286
H            2.50604415777615        4.36798681897200        0.53534788089215
H            1.11836698584044        3.55365635409868       -0.18808064577195
H            3.71416568368609        2.20434576288112        0.70125033124024
H            3.26701804361564        2.54737012233819       -0.97016589022870
H            1.71878098010022        0.74267337736032        0.93214864273749
H            1.28393644372522        1.06718747846325       -0.74807089317206
H            3.83754462593915       -0.31575411280869        0.19721900806359
H            3.47456877594497        0.10212116272723       -1.47739555827401
H            2.90065077901213       -2.20375916516583       -1.23294507085767
H            1.39430464072157       -1.29440264892789       -1.32836673589505
H            1.31246652269788       -1.37202688156102        1.22907004357699
H            2.70952169563833       -2.43251978509879        1.17682354801038
H            0.63916503190675       -3.70244431683717        1.43559353567884
H            1.44661995834863       -4.12040889140602       -0.07496998231057
H           -1.00240156956786       -3.94027700180005       -0.33678492685883
H           -0.14112072756065       -2.81384063956368       -1.37380277388925
H           -0.54688616870267       -0.99839664883917        0.29786606455401
H           -1.49880960689232       -2.12433698957032        1.26934970172832
H           -2.10260264256721       -1.33886564138489       -1.61746504845853
H           -3.09741347167660       -2.38302218487502       -0.60326689598276
H           -3.46801155636825       -0.48050573285005        0.97405021623121
H           -4.07584436605423       -0.17134799067925       -0.65202970281980
H           -1.47415308236985        0.90465532966447        0.52222895402701
H           -1.98000928874880        1.12052445871418       -1.15534258725768
H           -4.00555428807737        2.33047903450965       -0.38421887464543
H           -3.53094729585410        2.06848111307551        1.29434437649677
H           -1.45391988365163        3.39547600961050        0.92251309461148
H           -1.91248042070259        3.64889863563894       -0.76183449171061
H           -2.88727028990255        4.34605533333938        0.53199226956611
44
 energy: -45.305456614781 gnorm: 0.000914924060 xtb: 6.6.1 (8d0f1dd)
C            1.96051625370785        3.42834956954114        0.48997962835865
C            2.86904548855267        2.30016675307194        0.01657423593287
C            2.12499960031204        0.96925765885944       -0.05524641437338
C            3.02607634327715       -0.17520440517069       -0.51759253574376
C            2.26592177139521       -1.48970721013073       -0.70177689283640
C            1.82483143321032       -2.11878602294050        0.61887848870397
C            0.90118801671308       -3.32676828262119        0.44134654404359
C           -0.38816424411207       -3.03581185091994       -0.33318014581747
C           -1.18825863804216       -1.87499096359197        0.25222821745040
C           -2.41532805923828       -1.52801055567266       -0.58676940982274
C           -3.16503205950272       -0.30225014800069       -0.06002426473238
C           -2.34338201904909        0.98426424087231       -0.13432155281298
C           -3.14887252987485        2.21295169740587        0.28062999026312
C           -2.30062973074376        3.47853782108062        0.24070110944849
H            1.57000728714425        3.21271229419191        1.48259521168186
H            2.50632922779425        4.36797690309077        0.53443963657408
H            1.11929377895036        3.55181695829055       -0.18882793152868
H            3.71505460197802        2.20389368762979        0.70102875323818
H            3.26791165793421        2.54613164008415       -0.97026683438730
H            1.71833733272044        0.74455368632402        0.93256064669632
H            1.28498193615008        1.06717723805394       -0.74788266939979
H            3.83666160757881       -0.31570755741672        0.20125845108267
H            3.47697934648205        0.10316757369642       -1.47358887370067
H            2.90102167817081       -2.20192580190534       -1.23412746110743
H            1.39484087709568       -1.29215100828133       -1.32722139980468
H            1.31802826739885       -1.37440553453508        1.23195907765332
H            2.71186195216591       -2.43839607191280        1.17235738703002
H            0.63922238887053       -3.70266530025379        1.43372409631486
H            1.44498324622800       -4.11975099187463       -0.07819649059043
H           -1.00385642568232       -3.93893894059073       -0.33352241990658
H           -0.14521025654178       -2.81423338095179       -1.37415817253051
H           -0.54681455247573       -0.99765390933577        0.29788816321939
H           -1.49886788244550       -2.12258080370736        1.26991871347920
H           -2.10241974192080       -1.33790223441810       -1.61680986563703
H           -3.09721097970002       -2.38192590364205       -0.60271794992867
H           -3.46554900620591       -0.47965486217590        0.97539167870830
H           -4.07590971509783       -0.17087642897038       -0.64972584990784
H           -1.47418748638267        0.90723146271418        0.52064107489995
H           -1.98120769112114        1.12078769256508       -1.15640429768495
H           -4.00697331324166        2.32893076876008       -0.38534707873629
H           -3.53262435625306        2.06692216206664        1.29302111157648
H           -1.45593471780600        3.39386842618947        0.92128475362767
H           -1.91497767722727        3.64783689347286       -0.76263452585712
H           -2.88924401116589        4.34550004105892        0.53173406686366
44
 energy: -45.305498016419 gnorm: 0.003620455207 xtb: 6.6.1 (8d0f1dd)
C            1.96326021256150        3.42935968870261        0.48837307836227
C            2.87334147867260        2.29988072429183        0.01654937489099
C            2.12662247345355        0.97023295568112       -0.05232198723823
C            3.02975864923578       -0.17481850128370       -0.50909558937488
C            2.26856077243708       -1.48866361775821       -0.70215327744330
C            1.83267745990817       -2.12659765018435        0.61606562595130
C            0.90086118825035       -3.32931859935106        0.43594999072995
C           -0.39251762252533       -3.03433220517194       -0.33176855704998
C           -1.18775419621159       -1.87079793210660        0.25483122449504
C           -2.41523910303461       -1.52579557745927       -0.58495695970906
C           -3.16492671919735       -0.30043617757955       -0.05650020443231
C           -2.34559423264646        0.98677065517703       -0.13785578296036
C           -3.15627983455879        2.21199483396420        0.27688024603852
C           -2.30886187145457        3.47972459093706        0.23792411943006
H            1.57339066361975        3.21202469382572        1.48046468662721
H            2.50689289666606        4.36972415594582        0.53136886787588
H            1.12231564885526        3.54766419346501       -0.19115952015550
H            3.71891317358806        2.20369199649632        0.70061391673537
H            3.27212415262254        2.54292261610055       -0.97038657149714
H            1.71604673926599        0.74993249999655        0.93438585727499
H            1.28894880313229        1.06679180982511       -0.74713312594477
H            3.83385259415862       -0.31732324874636        0.21598122138144
H            3.48876535286560        0.10619037500196       -1.45987266477483
H            2.90167754750168       -2.19660930178756       -1.24114431071149
H            1.39625018051603       -1.28576035551353       -1.32368798436594
H            1.33803908850131       -1.38428496712574        1.24175651214359
H            2.72149276470604       -2.45915946494152        1.15752047307110
H            0.64073372281953       -3.70757726070236        1.42724206909389
H            1.43996724011648       -4.12086958531973       -0.08911855813188
H           -1.01009613461856       -3.93523877042874       -0.32418721429746
H           -0.15807689271240       -2.81657851243355       -1.37529196589635
H           -0.54496459747766       -0.99454866249039        0.29916508787382
H           -1.49784777420744       -2.11558127254248        1.27267780801338
H           -2.10249937290010       -1.33496816342397       -1.61437964549456
H           -3.09572549909046       -2.37989173548324       -0.60109519031667
H           -3.45808295233651       -0.47666529094502        0.98068591070076
H           -4.07902893311587       -0.17003526710021       -0.64021967405580
H           -1.47413606000926        0.91572161479763        0.51409790402655
H           -1.98654511671553        1.12173467935601       -1.16071288835448
H           -4.01359502359061        2.32511830064809       -0.38954139293323
H           -3.54019429010926        2.06326928823686        1.28817066976773
H           -1.46367282644914        3.39146061827637        0.91687734465834
H           -1.92463088985612        3.64746529088233       -0.76581793640282
H           -2.89678386063663        4.34591353827091        0.53061701239883
44
 energy: -45.305516532585 gnorm: 0.002517603253 xtb: 6.6.1 (8d0f1dd)
C            1.96420257406410        3.42965582124978        0.48785766759386
C            2.87412963097747        2.30008112568238        0.01708716341905
C            2.12770505700101        0.97023852162960       -0.05146844701834
C            3.03081109418712       -0.17554723736373       -0.50640859985503
C            2.26923913017145       -1.48861174445166       -0.70232527956177
C            1.83490317251805       -2.13002238597906        0.61473706201685
C            0.90110542238873       -3.33097046693350        0.43411940202461
C           -0.39303324909223       -3.03417833130297       -0.33127191575184
C           -1.18673025471980       -1.86968823342916        0.25541540261121
C           -2.41474513648503       -1.52477807628718       -0.58365858896083
C           -3.16497372657065       -0.30017612470899       -0.05500882377035
C           -2.34740040505817        0.98790445746457       -0.13887413260504
C           -3.15853644167354        2.21286303522842        0.27550513890326
C           -2.31212342159207        3.48079676798933        0.23672896701246
H            1.57427805210930        3.21350986189748        1.48029172749168
H            2.50746181745060        4.37040021295366        0.53015024753852
H            1.12311204805552        3.54766653827868       -0.19171786621606
H            3.71995148769586        2.20436707512357        0.70127992858087
H            3.27337456554210        2.54254910696081       -0.97006031581425
H            1.71570915145960        0.75061493592297        0.93505961567313
H            1.29055587888875        1.06643811146682       -0.74731405964333
H            3.83287726886029       -0.31933932402371        0.22094132767364
H            3.49330460733368        0.10584805059614       -1.45562544639928
H            2.90167319108567       -2.19525556817978       -1.24431135830126
H            1.39610119693176       -1.28436889380452       -1.32250201516672
H            1.34314539115680       -1.38838864279814        1.24368381133614
H            2.72458048073830       -2.46540754435972        1.15341270100801
H            0.64229551586852       -3.71072793639976        1.42540707360284
H            1.43856877750078       -4.12276960602396       -0.09271107919432
H           -1.01190386357296       -3.93450059006426       -0.32257328003134
H           -0.16005105400750       -2.81729089006808       -1.37545483754337
H           -0.54322961544239       -0.99367354894129        0.29931561504596
H           -1.49647770060780       -2.11360605955890        1.27384754749689
H           -2.10262701063760       -1.33389355499700       -1.61345027699149
H           -3.09462838056283       -2.37967808952352       -0.59981655351182
H           -3.45619947450244       -0.47585112600844        0.98300318321225
H           -4.08072783102059       -0.17117861267880       -0.63690906664569
H           -1.47470752221369        0.91813801987420        0.51191451332115
H           -1.98959187200778        1.12208646252673       -1.16250735223490
H           -4.01607222897501        2.32530813156979       -0.39112879539319
H           -3.54296724089470        2.06383273997065        1.28679737912846
H           -1.46654883804401        3.39297923205451        0.91541864078930
H           -1.92824345788053        3.64951421545768       -0.76709282989181
H           -2.90012778642411        4.34684716398837        0.53001480502190
44
 energy: -45.305557334735 gnorm: 0.001479905249 xtb: 6.6.1 (8d0f1dd)
C            1.96806103222765        3.43049321939478        0.48573640848867
C            2.87733499688086        2.30014041774428        0.01970088317305
C            2.13207109594561        0.96948172185651       -0.04775843133549
C            3.03520902691865       -0.17923270954206       -0.49530231189423
C            2.27160221999078       -1.48878807124697       -0.70308968892324
C            1.84357222692623       -2.14416940782351        0.60938889170205
C            0.90256705460647       -3.33834944176020        0.42614398740093
C           -0.39431024541992       -3.03339143358995       -0.33003556346627
C           -1.18109878323466       -1.86492901638469        0.25790421479774
C           -2.41196992540808       -1.52053711655457       -0.57733164270090
C           -3.16493212359883       -0.29911969434565       -0.04797455274628
C           -2.35523097563068        0.99305096449395       -0.14289036731288
C           -3.16845219984247        2.21700166984596        0.26978477226684
C           -2.32645548342181        3.48618672479995        0.23127241277389
H            1.57775447518634        3.22019079717001        1.47965323928924
H            2.51096825792078        4.37214570100006        0.52444286712917
H            1.12652463686054        3.54762351621860       -0.19402545123775
H            3.72332386582268        2.20661407319142        0.70508988829806
H            3.27854025936578        2.54050751970344       -0.96795577250197
H            1.71459643869369        0.75237758566363        0.93781298460404
H            1.29775722163777        1.06442099783002       -0.74818237417624
H            3.82841291775928       -0.32874635020100        0.24151735793203
H            3.51165190701103        0.10306128455832       -1.43816606793244
H            2.90114467769021       -2.18997818517934       -1.25705408378779
H            1.39509470633380       -1.27843810151209       -1.31717034162776
H            1.36177106636805       -1.40581966664507        1.25046860365796
H            2.73656874122040       -2.49022266013712        1.13719081741867
H            0.64928124473038       -3.72405581088378        1.41731504668234
H            1.43296560389578       -4.13088741312451       -0.10833703016869
H           -1.01845386637356       -3.93104150912885       -0.31782762841618
H           -0.16592998896411       -2.81893177250639       -1.37617378295878
H           -0.53472516347272       -0.99015714961105        0.29893271269849
H           -1.48861797612766       -2.10594114933436        1.27850171353678
H           -2.10296424774779       -1.32903356589391       -1.60852941992864
H           -3.08935148963679       -2.37847226790187       -0.59290506852723
H           -3.44788530746453       -0.47233244379998        0.99334430811994
H           -4.08706419646504       -0.17759194064680       -0.62293796768127
H           -1.47750731676538        0.92899855573500        0.50275861860943
H           -2.00389655924416        1.12374037218521       -1.16991724107367
H           -4.02662188759897        2.32682561337877       -0.39766014333837
H           -3.55435505690243        2.06761436054775        1.28119757879094
H           -1.47921297951882        3.40126553728541        0.90881095608380
H           -1.94428767758268        3.65925888092074       -0.77284389472320
H           -2.91601122357157        4.35090436422989        0.52689856300513
44
 energy: -45.305570460940 gnorm: 0.001716559726 xtb: 6.6.1 (8d0f1dd)
C            1.96981098454416        3.43043158728825        0.48485546988661
C            2.87885516194368        2.29901104262562        0.02153096436386
C            2.13380627394607        0.96814014569005       -0.04605814684924
C            3.03727468264525       -0.18159467639486       -0.49061664475773
C            2.27237790343305       -1.48952982066696       -0.70331868082193
C            1.84664580149905       -2.15024382544402        0.60721633321473
C            0.90372573552067       -3.34231889081532        0.42228882352635
C           -0.39367843719601       -3.03268168794251       -0.33076075617779
C           -1.17702919446286       -1.86270866601846        0.25899883062303
C           -2.40995376127342       -1.51871209625827       -0.57349238279630
C           -3.16452437743589       -0.29852226235085       -0.04366564437870
C           -2.35899322679515        0.99589436983831       -0.14446782960635
C           -3.17358156475462        2.21932340328827        0.26746268689979
C           -2.33412166684151        3.48997579570120        0.22813675435937
H            1.57912214246477        3.22334137388892        1.47935386968062
H            2.51357247926733        4.37182671077320        0.52136237261381
H            1.12832351837582        3.54713247129206       -0.19515546564836
H            3.72396060266379        2.20636927572687        0.70818548155824
H            3.28129192711884        2.53847743390031       -0.96589648164093
H            1.71426581260949        0.75173177848421        0.93880150627328
H            1.30118283660616        1.06271901158256       -0.74853327313401
H            3.82638694321702       -0.33370032522305        0.24995729354073
H            3.51898391603337        0.10071481606447       -1.43070113051159
H            2.90021142879024       -2.18859503384740       -1.26182552167969
H            1.39462170526071       -1.27600252569805       -1.31441187363931
H            1.36693949021697       -1.41392241956428        1.25193801689778
H            2.74055047789156       -2.49901607205407        1.13145724695018
H            0.65227864828496       -3.73071503908500        1.41294124404845
H            1.43133153049249       -4.13444668285038       -0.11569696139551
H           -1.02022388901783       -3.92871101960553       -0.31869224064767
H           -0.16590863495969       -2.81775478256315       -1.37693224695282
H           -0.52965396904667       -0.98856581393513        0.29749163726766
H           -1.48204098446209       -2.10294716104719        1.28054982530565
H           -2.10307152523295       -1.32677228210321       -1.60528694858615
H           -3.08612669570634       -2.37771503413647       -0.58788304160378
H           -3.44353324937722       -0.47027107825072        0.99897331686626
H           -4.08896164333014       -0.18159781731362       -0.61591576379298
H           -1.47900195635662        0.93508006562474        0.49839125320226
H           -2.01170029276059        1.12476963823410       -1.17308316576443
H           -4.03191466159297        2.32771932818590       -0.40010356747997
H           -3.55935053491878        2.07057332716422        1.27907516504188
H           -1.48604035062609        3.40744626793060        0.90502068557508
H           -1.95309889819541        3.66478156528060       -0.77618066284809
H           -2.92557148848254        4.35332260460406        0.52448765301762
44
 energy: -45.305591011891 gnorm: 0.000644624643 xtb: 6.6.1 (8d0f1dd)
C            1.97237257016708        3.42927559538601        0.48383031694836
C            2.88134969660605        2.29529003187109        0.02508559785615
C            2.13566252254480        0.96469149553475       -0.04360200266471
C            3.04018988523177       -0.18564844685157       -0.48523507398873
C            2.27315215942905       -1.49169944272099       -0.70320295964878
C            1.84935009564256       -2.15697866441790        0.60552533402352
C            0.90594867243808       -3.34791267000781        0.41655045203790
C           -0.39105615132355       -3.03076025518376       -0.33426954689513
C           -1.16947732199449       -1.85935440202118        0.25998527638634
C           -2.40661391405116       -1.51651526758904       -0.56692438324628
C           -3.16309925976935       -0.29720518070003       -0.03614428051218
C           -2.36363919124499        1.00051956686376       -0.14607130380775
C           -3.18146063756058        2.22256537368413        0.26500114277582
C           -2.34667527504706        3.49693013043298        0.22268635592130
H            1.58065743955205        3.22664244887838        1.47873356764978
H            2.51809894828836        4.36960673783860        0.51688317634234
H            1.13161454638671        3.54469278232717       -0.19720579179767
H            3.72368705766115        2.20311832881058        0.71474178931984
H            3.28670547765831        2.53326921135068       -0.96121846449641
H            1.71355334149011        0.74853258632855        0.93988256784177
H            1.30564200678015        1.05926384302671       -0.74866041788884
H            3.82448881353903       -0.34055419408825        0.25919437472288
H            3.52678360443989        0.09667555803444       -1.42219811159462
H            2.89832631898424       -2.18898125866201       -1.26599676697009