 Entering Gaussian System
 *********************************************
 Gaussian 98:
 frequency output generated by the xtb code
 *********************************************
                         Standard orientation:
 --------------------------------------------------------------------
  Center     Atomic     Atomic              Coordinates (Angstroms)
  Number     Number      Type              X           Y           Z
 --------------------------------------------------------------------
    1          6             0        3.060111   -2.492305    0.401627
    2          6             0        2.232449   -3.426181   -0.473604
    3          6             0        0.904712   -2.813418   -0.920507
    4          6             0       -0.102238   -2.651309    0.216368
    5          6             0       -1.436327   -2.104260   -0.286090
    6          6             0       -2.438562   -1.914520    0.850673
    7          6             0       -3.794135   -1.371772    0.390625
    8          6             0       -3.742786    0.028456   -0.224567
    9          6             0       -3.381204    1.116719    0.784916
   10          6             0       -3.084113    2.472222    0.139640
   11          6             0       -1.879489    2.483590   -0.805852
   12          6             0       -0.579926    2.019898   -0.151210
   13          6             0        0.591054    2.059790   -1.131313
   14          6             0        1.862916    1.416546   -0.575966
   15          6             0        2.536152    2.253188    0.509862
   16          6             0        3.765411    1.574101    1.115824
   17          6             0        4.924843    1.433940    0.136169
   18          1             0        4.011709   -2.954767    0.654428
   19          1             0        3.261973   -1.560939   -0.122800
   20          1             0        2.540423   -2.262656    1.328500
   21          1             0        2.035274   -4.353800    0.068953
   22          1             0        2.815519   -3.681709   -1.361871
   23          1             0        0.462568   -3.455465   -1.686838
   24          1             0        1.094377   -1.839310   -1.378485
   25          1             0        0.297064   -1.969758    0.970339
   26          1             0       -0.262908   -3.619254    0.697702
   27          1             0       -1.252440   -1.151170   -0.784373
   28          1             0       -1.855653   -2.789293   -1.027203
   29          1             0       -2.603116   -2.880131    1.336240
   30          1             0       -2.008388   -1.249152    1.601772
   31          1             0       -4.209868   -2.061135   -0.348836
   32          1             0       -4.473694   -1.358253    1.246694
   33          1             0       -3.024172    0.026818   -1.042491
   34          1             0       -4.720893    0.258376   -0.654761
   35          1             0       -2.515463    0.808479    1.369652
   36          1             0       -4.212665    1.239788    1.483926
   37          1             0       -2.908767    3.199378    0.936869
   38          1             0       -3.964393    2.801869   -0.418248
   39          1             0       -2.086974    1.856272   -1.675251
   40          1             0       -1.744669    3.503898   -1.174751
   41          1             0       -0.369598    2.653509    0.712324
   42          1             0       -0.693237    0.994974    0.204051
   43          1             0        0.799702    3.093798   -1.415926
   44          1             0        0.299045    1.523687   -2.038909
   45          1             0        1.616424    0.432867   -0.168977
   46          1             0        2.563955    1.270675   -1.400204
   47          1             0        2.827842    3.219493    0.090998
   48          1             0        1.819637    2.442545    1.311460
   49          1             0        3.484097    0.585844    1.486994
   50          1             0        4.101046    2.163894    1.972506
   51          1             0        5.199031    2.404994   -0.270874
   52          1             0        5.793860    1.014983    0.638736
   53          1             0        4.665051    0.776544   -0.689539
 --------------------------------------------------------------------
     1 basis functions        1 primitive gaussians
     1 alpha electrons        1 beta electrons
 
 Harmonic frequencies (cm**-1), IR intensities (km*mol⁻¹),
 Raman scattering activities (A**4/amu), Raman depolarization ratios,
 reduced masses (AMU), force constants (mDyne/A) and normal coordinates:
                      1                      2                      3
                        a                      a                      a 
 Frequencies --    16.2389                23.1155                29.1668
 Red. masses --     9.2614                 9.2487                 8.2979
 Frc consts  --     0.0000                 0.0000                 0.0000
 IR Inten    --     0.0034                 0.0058                 0.0049
 Raman Activ --     0.0000                 0.0000                 0.0000
 Depolar     --     0.0000                 0.0000                 0.0000
 Atom AN      X      Y      Z        X      Y      Z        X      Y      Z
   1   6    -0.13  -0.00   0.33    -0.11  -0.00  -0.07    -0.05   0.09  -0.21
   2   6    -0.02   0.05   0.18    -0.12   0.13  -0.20    -0.10  -0.16   0.12
   3   6     0.01   0.05   0.09    -0.12   0.19  -0.10    -0.14  -0.30   0.05
   4   6    -0.12  -0.10  -0.01    -0.11   0.02  -0.06    -0.11  -0.13   0.05
   5   6    -0.06  -0.02  -0.09    -0.12   0.07   0.03    -0.10  -0.16   0.01
   6   6    -0.19  -0.18  -0.18    -0.10  -0.04   0.07    -0.10  -0.05  -0.00
   7   6    -0.12  -0.07  -0.25    -0.12  -0.04   0.15    -0.06   0.02  -0.04
   8   6    -0.00   0.00  -0.08    -0.16  -0.07   0.09     0.03   0.02  -0.03
   9   6     0.05  -0.14   0.05     0.03  -0.03  -0.01     0.06  -0.00  -0.02
  10   6     0.06  -0.06   0.22     0.10  -0.10  -0.13     0.07   0.00   0.00
  11   6     0.03   0.04   0.18     0.11  -0.24  -0.11     0.06   0.01   0.00
  12   6     0.06   0.00   0.10     0.11  -0.10  -0.01     0.05  -0.04  -0.02
  13   6     0.01   0.03   0.04     0.12  -0.25  -0.01     0.08   0.11   0.02
  14   6     0.05   0.06  -0.03     0.13  -0.11   0.13     0.09   0.09  -0.02
  15   6     0.14   0.14  -0.14     0.09   0.10  -0.01    -0.03  -0.06   0.17
  16   6     0.17   0.17  -0.16     0.13   0.26   0.10     0.10   0.00  -0.02
  17   6     0.08   0.02  -0.24     0.15   0.21   0.13     0.13   0.50  -0.05
  18   1    -0.05  -0.00   0.12    -0.03  -0.01  -0.04    -0.01   0.05  -0.03
  19   1    -0.02   0.01   0.12    -0.03   0.02   0.02    -0.02  -0.02  -0.15
  20   1    -0.07  -0.02   0.08    -0.03  -0.04  -0.01    -0.00   0.11  -0.07
  21   1    -0.02   0.00   0.02    -0.03   0.01  -0.10    -0.01  -0.00   0.11
  22   1     0.02   0.04   0.06    -0.04   0.08  -0.07    -0.05  -0.12   0.04
  23   1     0.03   0.04  -0.01    -0.04   0.09  -0.05    -0.04  -0.13   0.05
  24   1     0.01   0.03   0.06    -0.04   0.08   0.01    -0.06  -0.11  -0.04
  25   1    -0.06  -0.06   0.04    -0.03  -0.02   0.01    -0.02  -0.01  -0.01
  26   1    -0.05  -0.05  -0.05    -0.03  -0.01  -0.06    -0.03  -0.02   0.05
  27   1     0.00   0.02   0.02    -0.04   0.03   0.04    -0.03  -0.06  -0.02
  28   1     0.01   0.03  -0.07    -0.04   0.04  -0.01    -0.03  -0.06   0.02
  29   1    -0.08  -0.08  -0.11    -0.02  -0.02   0.00    -0.05  -0.00   0.01
  30   1    -0.08  -0.09  -0.00    -0.03  -0.02   0.03    -0.02  -0.01  -0.01
  31   1    -0.02   0.01  -0.11    -0.05  -0.02   0.06    -0.02   0.01  -0.01
  32   1    -0.06  -0.04  -0.09    -0.02  -0.00   0.06    -0.02   0.02  -0.02
  33   1     0.00   0.01  -0.02    -0.08  -0.04  -0.00     0.02  -0.00  -0.00
  34   1     0.01   0.04  -0.02    -0.06  -0.01   0.06     0.02   0.02  -0.02
  35   1     0.02  -0.07  -0.01     0.01  -0.02  -0.02     0.02  -0.01  -0.01
  36   1     0.02  -0.06   0.03     0.03   0.03   0.02     0.02  -0.00  -0.00
  37   1     0.03  -0.05   0.09     0.03  -0.01  -0.06     0.02  -0.00   0.00
  38   1     0.01   0.01   0.08     0.03  -0.03  -0.05     0.02   0.01   0.00
  39   1     0.00   0.03   0.04     0.04  -0.12  -0.00     0.01   0.01  -0.01
  40   1     0.00   0.02   0.08     0.03  -0.09  -0.08     0.02   0.01   0.01
  41   1     0.03  -0.01   0.03     0.02   0.02  -0.04     0.00  -0.04   0.02
  42   1     0.02  -0.00   0.02     0.04  -0.01   0.05     0.02  -0.03  -0.04
  43   1    -0.01   0.01   0.00     0.03  -0.09  -0.06     0.01   0.04   0.04
  44   1    -0.01   0.00   0.02     0.04  -0.12   0.03     0.04   0.06  -0.01
  45   1     0.03   0.03   0.02     0.05  -0.01   0.09     0.04   0.00  -0.06
  46   1    -0.00   0.00  -0.02     0.04  -0.07   0.05     0.04   0.08  -0.00
  47   1     0.04   0.03  -0.07     0.01   0.01  -0.05    -0.05   0.03   0.11
  48   1     0.06   0.07  -0.03     0.02   0.06  -0.01    -0.01  -0.11   0.06
  49   1     0.05   0.06  -0.01     0.05   0.08   0.06     0.08  -0.05  -0.09
  50   1     0.07   0.07  -0.07     0.02   0.11   0.01    -0.01  -0.05   0.04
  51   1     0.02  -0.01  -0.11     0.03   0.05   0.00    -0.02   0.19   0.07
  52   1     0.03   0.01  -0.07     0.05   0.09   0.06     0.06   0.15  -0.05
  53   1    -0.00  -0.02  -0.04     0.06   0.02   0.06     0.08   0.20  -0.07
                      4                      5                      6
                        a                      a                      a 
 Frequencies --    39.6860                42.7609                50.5044
 Red. masses --     9.3270                 8.6488                 8.5353
 Frc consts  --     0.0000                 0.0000                 0.0000
 IR Inten    --     0.0035                 0.0014                 0.0012
 Raman Activ --     0.0000                 0.0000                 0.0000
 Depolar     --     0.0000                 0.0000                 0.0000
 Atom AN      X      Y      Z        X      Y      Z        X      Y      Z
   1   6    -0.07  -0.03  -0.02    -0.02  -0.60   0.25     0.00  -0.14  -0.16
   2   6    -0.05  -0.02  -0.05    -0.05  -0.23  -0.12    -0.02  -0.25  -0.03
   3   6    -0.07  -0.04  -0.01     0.05   0.04  -0.03    -0.04  -0.30  -0.05
   4   6    -0.07  -0.14   0.01     0.03  -0.07  -0.03     0.01  -0.15  -0.04
   5   6    -0.06  -0.09   0.05     0.08   0.09   0.02     0.02  -0.14  -0.05
   6   6    -0.05  -0.13   0.07     0.09   0.05   0.03     0.08   0.06  -0.02
   7   6    -0.04  -0.06   0.11     0.07   0.01   0.05     0.09   0.07  -0.03
   8   6     0.01  -0.07   0.09     0.03  -0.00   0.02     0.11   0.07  -0.04
   9   6     0.19  -0.09   0.05     0.00   0.03  -0.01    -0.06   0.08   0.01
  10   6     0.08  -0.08   0.01    -0.04   0.03  -0.04    -0.03   0.09   0.06
  11   6     0.01  -0.04  -0.09    -0.04   0.04  -0.04    -0.02   0.11   0.08
  12   6     0.08   0.08  -0.15    -0.03   0.10  -0.02    -0.05  -0.02   0.05
  13   6     0.08   0.35  -0.14    -0.03   0.09  -0.02    -0.06  -0.12   0.04
  14   6     0.12   0.35  -0.24    -0.03   0.08  -0.03    -0.04   0.01   0.13
  15   6     0.04   0.21  -0.07    -0.09   0.01   0.06     0.05   0.31  -0.15
  16   6    -0.15   0.02   0.10    -0.02   0.05  -0.04    -0.02   0.40   0.08
  17   6    -0.05  -0.21   0.25    -0.01   0.30  -0.07    -0.04  -0.05   0.12
  18   1    -0.01   0.00  -0.02    -0.02  -0.22   0.04     0.01  -0.02  -0.06
  19   1    -0.04   0.00   0.01     0.02  -0.12   0.17    -0.02  -0.05  -0.07
  20   1    -0.02  -0.03   0.00    -0.01  -0.26   0.09     0.02  -0.03  -0.04
  21   1    -0.00  -0.02  -0.03    -0.05  -0.11  -0.13     0.00  -0.05   0.03
  22   1    -0.01   0.01  -0.02    -0.00  -0.00  -0.05    -0.01  -0.10  -0.01
  23   1    -0.02  -0.00  -0.01    -0.00   0.08  -0.05    -0.02  -0.12   0.01
  24   1    -0.03  -0.00   0.01     0.06   0.03   0.05    -0.01  -0.11  -0.05
  25   1    -0.02  -0.06   0.02     0.02  -0.06   0.02     0.02  -0.02  -0.04
  26   1    -0.02  -0.05  -0.02    -0.01  -0.04  -0.05    -0.00  -0.03   0.02
  27   1    -0.01  -0.02   0.03     0.04   0.04   0.03     0.01  -0.06  -0.05
  28   1    -0.02  -0.01   0.01     0.01   0.06  -0.02    -0.01  -0.06   0.02
  29   1    -0.02  -0.04   0.00     0.03   0.01   0.00     0.02   0.04   0.03
  30   1    -0.01  -0.05   0.03     0.02   0.01   0.01     0.04   0.04  -0.04
  31   1    -0.03  -0.01   0.04     0.02  -0.00   0.02     0.03   0.02  -0.01
  32   1    -0.00  -0.01   0.04     0.03   0.01   0.02     0.02   0.02  -0.01
  33   1    -0.02  -0.04   0.01     0.01  -0.00   0.00     0.07   0.03   0.02
  34   1    -0.01  -0.00   0.06     0.01  -0.01   0.01     0.05   0.01  -0.05
  35   1     0.09  -0.03  -0.03     0.00   0.02  -0.00    -0.03   0.03   0.04
  36   1     0.09  -0.03   0.06     0.00   0.01  -0.00    -0.04   0.01  -0.03
  37   1     0.03  -0.02  -0.00    -0.02   0.02  -0.02    -0.01   0.02   0.02
  38   1     0.01  -0.04   0.02    -0.01  -0.01  -0.01    -0.00   0.03   0.01
  39   1    -0.00  -0.03  -0.01    -0.00  -0.00  -0.01    -0.01   0.06   0.01
  40   1    -0.03  -0.01  -0.04    -0.02   0.01  -0.02     0.01   0.04   0.05
  41   1    -0.00   0.00  -0.02    -0.01   0.04  -0.01     0.01  -0.01   0.02
  42   1     0.07   0.01  -0.08     0.00   0.03   0.01    -0.04  -0.00   0.01
  43   1    -0.00   0.12   0.01    -0.00   0.03  -0.01    -0.03  -0.05  -0.03
  44   1     0.04   0.14  -0.07    -0.01   0.03  -0.01    -0.02  -0.08   0.03
  45   1     0.05   0.08  -0.12    -0.00   0.01  -0.03    -0.01   0.04   0.12
  46   1     0.04   0.16  -0.07     0.00   0.05  -0.00    -0.03  -0.07   0.04
  47   1     0.06   0.06   0.01    -0.05   0.03   0.05     0.04   0.04  -0.14
  48   1    -0.02   0.07  -0.05    -0.03  -0.04   0.03     0.02   0.19  -0.06
  49   1    -0.11   0.02   0.03     0.02  -0.01  -0.05    -0.03   0.16   0.12
  50   1    -0.05  -0.00   0.04    -0.02  -0.01   0.01     0.01   0.19  -0.03
  51   1     0.05  -0.08   0.07    -0.04   0.11   0.02     0.02  -0.06  -0.06
  52   1    -0.05  -0.10   0.11     0.01   0.10  -0.04    -0.02   0.01   0.08
  53   1    -0.02  -0.06   0.07     0.01   0.11  -0.04    -0.03  -0.09   0.10
                      7                      8                      9
                        a                      a                      a 
 Frequencies --    70.8476                78.7264                86.1759
 Red. masses --     8.5219                 7.6634                 7.9861
 Frc consts  --     0.0000                 0.0000                 0.0000
 IR Inten    --     0.0128                 0.0130                 0.0110
 Raman Activ --     0.0000                 0.0000                 0.0000
 Depolar     --     0.0000                 0.0000                 0.0000
 Atom AN      X      Y      Z        X      Y      Z        X      Y      Z
   1   6     0.13  -0.05  -0.22     0.18  -0.04  -0.15    -0.11   0.22   0.06
   2   6    -0.06  -0.12   0.03    -0.03  -0.11   0.12     0.10   0.14  -0.06
   3   6    -0.04  -0.06   0.07     0.03   0.01   0.08    -0.00  -0.07  -0.04
   4   6    -0.02  -0.04   0.09    -0.01   0.03   0.03    -0.13  -0.53  -0.08
   5   6     0.08   0.22   0.11     0.11   0.33   0.02     0.03  -0.06   0.03
   6   6    -0.05  -0.02   0.05    -0.07  -0.05  -0.08     0.05  -0.04   0.06
   7   6    -0.05  -0.10  -0.03    -0.04  -0.01  -0.11     0.08   0.05   0.08
   8   6    -0.11  -0.13  -0.08    -0.03   0.05   0.03     0.17   0.02   0.02
   9   6    -0.09  -0.08  -0.14     0.13  -0.06   0.10     0.08   0.07  -0.01
  10   6    -0.12  -0.10  -0.19     0.09  -0.01   0.19    -0.00   0.07  -0.05
  11   6    -0.02  -0.06  -0.05    -0.01   0.02   0.05    -0.01   0.11  -0.06
  12   6     0.02   0.34   0.16     0.06   0.11  -0.05     0.02   0.27   0.00
  13   6     0.03   0.18   0.17    -0.05  -0.20  -0.20    -0.01  -0.06  -0.04
  14   6    -0.01   0.10   0.17    -0.04  -0.13  -0.14    -0.09  -0.12   0.06
  15   6     0.13   0.08   0.10    -0.12  -0.04  -0.16    -0.07  -0.09   0.02
  16   6     0.15   0.00  -0.03    -0.19  -0.01   0.02    -0.04  -0.05  -0.00
  17   6     0.01  -0.15  -0.17    -0.01   0.12   0.23    -0.04   0.04  -0.01
  18   1     0.03  -0.03  -0.06     0.02  -0.05  -0.00    -0.01   0.11   0.02
  19   1     0.06  -0.05  -0.12     0.11  -0.07  -0.13    -0.07   0.09   0.04
  20   1     0.07   0.06  -0.07     0.06   0.10  -0.07    -0.06   0.01   0.02
  21   1    -0.03  -0.00   0.06    -0.04   0.01   0.10     0.08   0.01  -0.05
  22   1    -0.05  -0.10   0.00    -0.04  -0.12   0.04     0.05   0.10  -0.02
  23   1    -0.03  -0.01   0.02     0.00   0.02   0.01     0.06   0.01  -0.07
  24   1    -0.00  -0.02   0.02     0.04   0.00   0.03    -0.05   0.02   0.06
  25   1     0.02  -0.06   0.05     0.02  -0.04   0.05    -0.04  -0.28   0.09
  26   1    -0.05  -0.02  -0.01    -0.06  -0.00  -0.04    -0.09  -0.22  -0.17
  27   1     0.06   0.10   0.12     0.07   0.15   0.12     0.09   0.00   0.08
  28   1     0.03   0.13  -0.04     0.06   0.18  -0.09    -0.04   0.07  -0.04
  29   1    -0.00  -0.03  -0.03    -0.03  -0.06  -0.11    -0.00  -0.02   0.01
  30   1    -0.05  -0.03   0.05    -0.06  -0.07   0.05     0.03  -0.03   0.02
  31   1     0.00  -0.04  -0.01     0.00   0.02  -0.06     0.00   0.02   0.04
  32   1    -0.03  -0.03  -0.02    -0.03  -0.03  -0.04     0.03   0.04   0.03
  33   1    -0.04  -0.04  -0.03    -0.03   0.03  -0.01     0.07  -0.01   0.02
  34   1    -0.04  -0.05  -0.01    -0.02   0.04   0.04     0.06   0.01  -0.02
  35   1    -0.02  -0.02  -0.04     0.05  -0.04  -0.01     0.02   0.04   0.01
  36   1    -0.02  -0.02  -0.03     0.06  -0.03   0.06     0.02   0.01  -0.01
  37   1    -0.08  -0.01  -0.06     0.06  -0.02   0.07    -0.01   0.03  -0.02
  38   1    -0.03  -0.06  -0.09     0.01   0.02   0.09    -0.01  -0.00  -0.02
  39   1     0.06  -0.08   0.02    -0.02  -0.00   0.03     0.01   0.01  -0.00
  40   1    -0.05  -0.03  -0.07    -0.03   0.01   0.00    -0.03   0.03  -0.04
  41   1    -0.03   0.19  -0.01     0.06   0.09  -0.06     0.02   0.14  -0.05
  42   1     0.04   0.13   0.14     0.02   0.06   0.06     0.00   0.11   0.08
  43   1     0.03   0.04   0.03    -0.01  -0.08  -0.14     0.03  -0.04  -0.07
  44   1    -0.00   0.04   0.06    -0.05  -0.12  -0.01    -0.03  -0.06   0.02
  45   1    -0.02   0.04   0.06    -0.01  -0.03  -0.02    -0.06  -0.02   0.04
  46   1    -0.02  -0.00   0.04    -0.00  -0.05  -0.03    -0.02  -0.07   0.03
  47   1     0.04   0.02   0.02    -0.02  -0.02  -0.06    -0.03  -0.03  -0.00
  48   1     0.06   0.04   0.05    -0.05   0.01  -0.07    -0.02  -0.03   0.01
  49   1     0.03   0.01   0.02    -0.06  -0.01  -0.03     0.00  -0.02  -0.01
  50   1     0.09   0.01  -0.03    -0.11  -0.01   0.03    -0.02  -0.02   0.00
  51   1     0.01  -0.06  -0.08     0.02   0.05   0.12    -0.02   0.02   0.01
  52   1     0.02  -0.05  -0.07    -0.03   0.01   0.09    -0.01   0.02  -0.01
  53   1    -0.04  -0.06  -0.02     0.04   0.07   0.02    -0.00   0.02  -0.01
                     10                     11                     12
                        a                      a                      a 
 Frequencies --   105.3556               113.6983               117.5884
 Red. masses --     8.4707                 6.4030                 6.9988
 Frc consts  --     0.0000                 0.0000                 0.0000
 IR Inten    --     0.0392                 0.0621                 0.0061
 Raman Activ --     0.0000                 0.0000                 0.0000
 Depolar     --     0.0000                 0.0000                 0.0000
 Atom AN      X      Y      Z        X      Y      Z        X      Y      Z
   1   6    -0.22   0.10   0.20    -0.08  -0.02   0.05    -0.03  -0.04  -0.02
   2   6     0.01  -0.11   0.20    -0.00   0.03  -0.08    -0.02   0.02  -0.09
   3   6     0.07  -0.26  -0.18    -0.05  -0.02  -0.02    -0.06  -0.01   0.01
   4   6     0.02   0.12  -0.29     0.07   0.16   0.06     0.08   0.21   0.10
   5   6     0.03   0.12  -0.30    -0.07  -0.22   0.02    -0.05  -0.16   0.05
   6   6     0.18   0.07  -0.15    -0.03  -0.06   0.03    -0.09  -0.13   0.00
   7   6     0.04  -0.02   0.16    -0.01  -0.06  -0.03    -0.02  -0.02  -0.09
   8   6    -0.19  -0.01   0.19     0.03  -0.06  -0.04     0.13   0.00  -0.03
   9   6     0.03   0.00   0.10    -0.03  -0.06  -0.03     0.23  -0.06   0.01
  10   6     0.01  -0.05  -0.01    -0.07  -0.03   0.00     0.13  -0.02   0.05
  11   6    -0.01  -0.12  -0.04    -0.04   0.08   0.04     0.06   0.07  -0.03
  12   6     0.05   0.16   0.04     0.03   0.34   0.11     0.12   0.28  -0.02
  13   6     0.02   0.01  -0.01    -0.05   0.01  -0.00     0.06  -0.07  -0.10
  14   6     0.01   0.01   0.01    -0.08  -0.08  -0.00    -0.00  -0.06   0.04
  15   6    -0.01  -0.01   0.04     0.15   0.02  -0.22    -0.20  -0.08   0.18
  16   6     0.00   0.00   0.01    -0.00  -0.14  -0.08    -0.05   0.11   0.08
  17   6    -0.02  -0.01  -0.02     0.25   0.10   0.18    -0.25  -0.04  -0.13
  18   1    -0.06   0.07   0.12     0.00   0.02  -0.04     0.02   0.01  -0.07
  19   1    -0.07   0.01   0.03    -0.08   0.03   0.06    -0.07   0.03   0.04
  20   1    -0.11   0.05   0.03    -0.01  -0.09   0.04     0.02  -0.08   0.03
  21   1    -0.02  -0.00   0.10     0.02  -0.02  -0.06     0.01  -0.01  -0.05
  22   1     0.06  -0.07   0.11     0.00   0.06  -0.03    -0.01   0.04  -0.04
  23   1     0.04  -0.15  -0.00    -0.04  -0.04   0.04    -0.05  -0.03   0.05
  24   1     0.04  -0.12  -0.14    -0.03  -0.03  -0.05    -0.03  -0.02  -0.05
  25   1     0.02   0.07  -0.13     0.01   0.14  -0.06     0.02   0.15  -0.05
  26   1    -0.02   0.07  -0.02     0.08   0.08   0.11     0.08   0.10   0.13
  27   1    -0.00   0.04  -0.09    -0.08  -0.10  -0.08    -0.07  -0.07  -0.04
  28   1    -0.01   0.03  -0.08    -0.00  -0.15   0.07     0.02  -0.11   0.05
  29   1     0.10   0.01  -0.04    -0.02   0.00   0.04    -0.05  -0.04  -0.01
  30   1     0.08   0.02  -0.06     0.00   0.01  -0.02    -0.03  -0.05   0.01
  31   1    -0.02  -0.01   0.07     0.00  -0.02  -0.01    -0.00   0.01  -0.04
  32   1     0.07  -0.03   0.09    -0.01  -0.01  -0.02    -0.03  -0.00  -0.04
  33   1    -0.12   0.01   0.00     0.02  -0.02  -0.00     0.04  -0.01  -0.01
  34   1    -0.09  -0.01   0.13     0.02  -0.02  -0.03     0.04   0.03  -0.01
  35   1     0.03  -0.01  -0.01    -0.01  -0.01  -0.01     0.09  -0.03  -0.03
  36   1     0.04   0.02   0.07    -0.01  -0.03  -0.01     0.09  -0.04   0.03
  37   1     0.01   0.01  -0.02    -0.05  -0.01   0.01     0.05  -0.01   0.02
  38   1    -0.00  -0.03  -0.00    -0.02  -0.02  -0.01     0.02  -0.01   0.04
  39   1     0.01  -0.10   0.03     0.02  -0.01   0.03     0.03  -0.01   0.01
  40   1    -0.04  -0.06  -0.08    -0.06   0.02  -0.02    -0.03   0.01  -0.04
  41   1     0.01   0.12  -0.04     0.02   0.18  -0.04     0.05   0.16  -0.07
  42   1     0.04   0.07   0.09     0.02   0.13   0.13     0.04   0.11   0.09
  43   1     0.01  -0.01  -0.04     0.02  -0.02  -0.06     0.04  -0.05  -0.11
  44   1    -0.01  -0.02   0.02    -0.06  -0.04   0.04    -0.01  -0.08   0.01
  45   1     0.00   0.00  -0.01    -0.06   0.01   0.06    -0.01  -0.03  -0.01
  46   1     0.01   0.01   0.00    -0.05  -0.10  -0.01     0.03   0.01   0.04
  47   1    -0.01   0.00   0.02     0.10  -0.04  -0.12    -0.12   0.01   0.09
  48   1    -0.00  -0.02   0.01     0.06   0.10  -0.07    -0.07  -0.10   0.06
  49   1     0.01   0.00   0.01    -0.03  -0.07  -0.11     0.02   0.05   0.10
  50   1     0.01   0.00  -0.00    -0.06  -0.11   0.04     0.02   0.09  -0.03
  51   1    -0.02  -0.01  -0.02     0.19   0.08   0.24    -0.19  -0.05  -0.20
  52   1     0.00   0.01  -0.01    -0.01  -0.13   0.06     0.00   0.15  -0.04
  53   1    -0.01  -0.02   0.01     0.09   0.20  -0.08    -0.07  -0.16   0.08
                     13                     14                     15
                        a                      a                      a 
 Frequencies --   142.6716               168.4065               197.7614
 Red. masses --     6.5321                 7.4974                 6.9195
 Frc consts  --     0.0000                 0.0000                 0.0000
 IR Inten    --     0.0181                 0.0303                 0.0469
 Raman Activ --     0.0000                 0.0000                 0.0000
 Depolar     --     0.0000                 0.0000                 0.0000
 Atom AN      X      Y      Z        X      Y      Z        X      Y      Z
   1   6     0.28  -0.10  -0.04     0.03   0.00  -0.00     0.27  -0.04  -0.03
   2   6    -0.02  -0.02   0.15     0.03   0.03  -0.03     0.20   0.01  -0.02
   3   6     0.14   0.28   0.03     0.00   0.02   0.03     0.07  -0.11   0.15
   4   6    -0.09  -0.06  -0.12    -0.02  -0.10   0.02    -0.01  -0.12   0.09
   5   6    -0.19  -0.35  -0.18    -0.01  -0.08   0.01     0.01  -0.11  -0.07
   6   6    -0.03  -0.07  -0.08     0.05   0.18   0.02    -0.10   0.03  -0.17
   7   6    -0.05   0.04   0.11     0.00   0.02  -0.06    -0.11   0.07  -0.14
   8   6    -0.03   0.04   0.10    -0.09   0.00  -0.10    -0.28   0.21   0.15
   9   6     0.04   0.06   0.05    -0.34   0.03  -0.04    -0.05   0.14   0.15
  10   6    -0.00   0.04  -0.04     0.02  -0.00   0.06     0.05   0.07   0.03
  11   6    -0.02   0.01  -0.05     0.12  -0.17   0.20    -0.06  -0.19  -0.12
  12   6     0.00   0.13  -0.00     0.19   0.08   0.26    -0.02  -0.00  -0.07
  13   6     0.01   0.01  -0.00    -0.04  -0.11  -0.03     0.02   0.02  -0.01
  14   6    -0.03  -0.00   0.06     0.21   0.13  -0.32    -0.02   0.03   0.08
  15   6    -0.00   0.02   0.02    -0.05  -0.03  -0.04     0.01   0.04   0.05
  16   6    -0.00   0.01   0.00    -0.06   0.00  -0.00     0.01  -0.02  -0.00
  17   6    -0.03  -0.01  -0.02    -0.03  -0.02   0.04    -0.02  -0.01  -0.04
  18   1    -0.03  -0.17   0.15     0.01  -0.01   0.00     0.19   0.08  -0.24
  19   1     0.31  -0.14  -0.13     0.02   0.00   0.00    -0.14   0.10   0.10
  20   1     0.03   0.21  -0.10     0.01   0.00  -0.00     0.20  -0.23   0.12
  21   1    -0.09   0.05   0.10     0.02  -0.00  -0.02     0.12  -0.03  -0.04
  22   1    -0.02  -0.11   0.06     0.00   0.02  -0.02     0.03   0.06  -0.05
  23   1     0.07   0.16  -0.08     0.01   0.02  -0.01     0.03  -0.04   0.05
  24   1     0.09   0.12   0.12    -0.01   0.02   0.03    -0.01  -0.03   0.04
  25   1    -0.10  -0.01   0.00    -0.01  -0.04   0.02    -0.02  -0.04   0.03
  26   1     0.02  -0.04  -0.07    -0.01  -0.04  -0.01    -0.02  -0.03   0.02
  27   1    -0.10  -0.14  -0.14     0.01  -0.05  -0.04     0.02  -0.04  -0.04
  28   1    -0.06  -0.18   0.02    -0.03  -0.05   0.04     0.02  -0.05  -0.01
  29   1    -0.02   0.01   0.03     0.03   0.09   0.08    -0.05   0.02  -0.04
  30   1     0.05  -0.00  -0.07     0.02   0.11  -0.05    -0.03   0.01  -0.05
  31   1    -0.06   0.02   0.05     0.03  -0.02  -0.01    -0.01   0.06  -0.08
  32   1     0.02   0.03   0.06    -0.01  -0.00  -0.03    -0.03  -0.05  -0.04
  33   1    -0.02   0.00   0.02     0.01   0.01   0.00    -0.14   0.09  -0.01
  34   1    -0.01   0.02   0.04    -0.02  -0.03  -0.07    -0.11   0.07   0.12
  35   1     0.02   0.02   0.00    -0.16  -0.01   0.07    -0.00   0.01   0.01
  36   1     0.02   0.03   0.02    -0.16   0.04  -0.09     0.02   0.07   0.07
  37   1    -0.00   0.03  -0.02     0.01  -0.02   0.03     0.08   0.03  -0.01
  38   1    -0.01  -0.01  -0.01     0.05   0.05  -0.02     0.01   0.04   0.04
  39   1     0.00  -0.03   0.00     0.06  -0.10   0.09    -0.04  -0.12   0.02
  40   1    -0.02  -0.01  -0.04     0.02  -0.07  -0.01    -0.03  -0.08  -0.12
  41   1    -0.00   0.07  -0.02     0.08   0.12   0.00    -0.03   0.03  -0.03
  42   1     0.01   0.05   0.04     0.09   0.06   0.18     0.02   0.01   0.01
  43   1     0.02  -0.00  -0.02    -0.06  -0.05  -0.10     0.01   0.01  -0.00
  44   1    -0.00  -0.01   0.01    -0.07  -0.10   0.05     0.02   0.00  -0.01
  45   1    -0.02   0.01   0.03     0.16  -0.03  -0.19    -0.02   0.02   0.04
  46   1    -0.01  -0.02   0.02     0.06   0.19  -0.12    -0.00  -0.01   0.03
  47   1     0.00   0.00  -0.00    -0.04   0.03   0.07     0.01   0.01   0.01
  48   1     0.00   0.01   0.01    -0.05  -0.09  -0.03     0.01   0.02   0.02
  49   1    -0.00   0.00   0.00    -0.02   0.00   0.00    -0.00  -0.01  -0.01
  50   1     0.01   0.00  -0.00    -0.03   0.01  -0.00     0.02  -0.02   0.01
  51   1    -0.00  -0.01  -0.00    -0.05  -0.02  -0.05     0.04   0.01   0.05
  52   1    -0.01  -0.01  -0.01     0.01   0.07   0.04    -0.03  -0.08  -0.04
  53   1    -0.02   0.00  -0.01     0.02  -0.07   0.05    -0.04   0.06  -0.05
                     16                     17                     18
                        a                      a                      a 
 Frequencies --   206.6548               222.1912               233.2803
 Red. masses --     5.0353                 7.2458                 6.7298
 Frc consts  --     0.0000                 0.0000                 0.0000
 IR Inten    --     0.0759                 0.1862                 0.0218
 Raman Activ --     0.0000                 0.0000                 0.0000
 Depolar     --     0.0000                 0.0000                 0.0000
 Atom AN      X      Y      Z        X      Y      Z        X      Y      Z
   1   6     0.09  -0.01  -0.01    -0.02   0.01  -0.01    -0.15   0.01   0.00
   2   6     0.05  -0.00   0.02    -0.02   0.01  -0.01    -0.05   0.01  -0.08
   3   6     0.03  -0.01   0.04    -0.03   0.02   0.03    -0.05   0.02  -0.03
   4   6    -0.02  -0.04   0.00    -0.04  -0.10   0.03     0.04  -0.02   0.06
   5   6    -0.01  -0.03  -0.02    -0.01  -0.03   0.04     0.06  -0.01   0.09
   6   6     0.00   0.04  -0.02     0.14   0.39   0.09     0.05   0.16   0.04
   7   6    -0.05  -0.04   0.03     0.02  -0.06  -0.06     0.10   0.00  -0.24
   8   6    -0.20  -0.03   0.02    -0.30  -0.10  -0.17     0.14   0.09   0.00
   9   6    -0.04  -0.03  -0.03     0.12  -0.24  -0.16    -0.06  -0.01   0.18
  10   6    -0.10   0.00   0.02     0.12  -0.09   0.17     0.07  -0.03   0.19
  11   6    -0.07   0.17   0.03     0.03   0.15   0.06    -0.20  -0.35  -0.16
  12   6    -0.04   0.09  -0.06     0.06   0.04  -0.10    -0.08   0.04  -0.14
  13   6     0.01   0.17  -0.01     0.08  -0.00  -0.08     0.02   0.13  -0.03
  14   6    -0.07  -0.14  -0.11    -0.02  -0.04   0.11    -0.08  -0.01   0.09
  15   6     0.05  -0.20  -0.13    -0.03   0.03   0.05     0.05  -0.01   0.01
  16   6     0.10  -0.01   0.01    -0.02   0.02   0.02     0.05  -0.03  -0.00
  17   6     0.26   0.04   0.18    -0.09   0.00  -0.06     0.09  -0.00   0.03
  18   1     0.05   0.02  -0.07    -0.02  -0.01   0.02    -0.12  -0.06   0.18
  19   1    -0.03   0.02   0.02     0.02  -0.01  -0.01     0.12  -0.06  -0.06
  20   1     0.06  -0.05   0.03    -0.02   0.02  -0.01    -0.15   0.14  -0.09
  21   1     0.02  -0.00   0.00    -0.00  -0.00  -0.01    -0.02  -0.00  -0.04
  22   1     0.00   0.00  -0.00    -0.01   0.01  -0.01    -0.00   0.02  -0.02
  23   1     0.02   0.00   0.00    -0.00   0.02  -0.01    -0.03   0.02  -0.01
  24   1     0.01   0.00   0.02    -0.01   0.02   0.04    -0.02   0.01   0.00
  25   1    -0.01  -0.02   0.01    -0.01  -0.05   0.03     0.02  -0.01   0.02
  26   1    -0.01  -0.02  -0.01    -0.02  -0.04  -0.02     0.02  -0.01   0.01
  27   1    -0.00  -0.02  -0.02     0.01  -0.05  -0.07     0.03  -0.02  -0.01
  28   1    -0.01  -0.02   0.00    -0.05  -0.05   0.08     0.00  -0.02   0.05
  29   1     0.01   0.02   0.02     0.10   0.17   0.17     0.02   0.07   0.06
  30   1     0.00   0.03  -0.02     0.04   0.23  -0.08    -0.01   0.10  -0.02
  31   1    -0.01  -0.02   0.02     0.07  -0.08   0.00     0.12   0.02  -0.14
  32   1    -0.00  -0.02   0.02    -0.01  -0.04  -0.03    -0.05  -0.07  -0.13
  33   1    -0.10   0.00  -0.03    -0.18  -0.02  -0.13     0.09   0.05   0.04
  34   1    -0.08  -0.02   0.06    -0.14  -0.03   0.08     0.07   0.04  -0.05
  35   1     0.01  -0.02  -0.04     0.07  -0.12  -0.14    -0.05  -0.01   0.09
  36   1     0.01  -0.01   0.03     0.10  -0.09   0.03    -0.05  -0.01   0.01
  37   1    -0.05  -0.01   0.02     0.07  -0.10   0.11     0.15  -0.03   0.04
  38   1    -0.03  -0.00   0.01     0.02   0.04   0.11    -0.00   0.06   0.13
  39   1    -0.02   0.08  -0.02    -0.01   0.09  -0.01    -0.10  -0.20   0.04
  40   1    -0.03   0.07   0.05    -0.01   0.07   0.08    -0.10  -0.14  -0.18
  41   1    -0.01  -0.01   0.01     0.04  -0.02  -0.01    -0.07   0.06  -0.07
  42   1    -0.02   0.01  -0.06     0.01   0.00  -0.06     0.03   0.02   0.01
  43   1     0.05   0.06   0.07     0.04  -0.01  -0.03     0.03   0.04   0.04
  44   1    -0.01   0.13  -0.04     0.03  -0.01  -0.02     0.03   0.07  -0.04
  45   1    -0.07  -0.03  -0.03    -0.04   0.01   0.06    -0.07   0.02   0.05
  46   1    -0.03  -0.07  -0.03     0.01  -0.06   0.05    -0.02  -0.07   0.04
  47   1     0.01  -0.06  -0.05    -0.01   0.00  -0.00     0.03  -0.02  -0.02
  48   1     0.02  -0.05  -0.04    -0.00   0.02   0.02     0.03   0.03   0.01
  49   1     0.07   0.00   0.04    -0.01   0.01   0.01     0.02  -0.01  -0.01
  50   1    -0.03   0.06  -0.02     0.01   0.00   0.00     0.01  -0.01   0.00
  51   1    -0.17  -0.04  -0.23     0.04   0.01   0.06    -0.04  -0.01  -0.06
  52   1     0.18   0.38   0.18    -0.05  -0.10  -0.06     0.05   0.09   0.04
  53   1     0.25  -0.29   0.24    -0.08   0.09  -0.07     0.07  -0.07   0.05
                     19                     20                     21
                        a                      a                      a 
 Frequencies --   255.2783               262.9955               273.6625
 Red. masses --     5.3325                 7.9971                 7.2479
 Frc consts  --     0.0000                 0.0000                 0.0000
 IR Inten    --     0.1273                 0.2676                 0.0754
 Raman Activ --     0.0000                 0.0000                 0.0000
 Depolar     --     0.0000                 0.0000                 0.0000
 Atom AN      X      Y      Z        X      Y      Z        X      Y      Z
   1   6    -0.04  -0.02   0.06    -0.03   0.01  -0.03     0.06  -0.02   0.04
   2   6     0.17   0.06  -0.22    -0.07  -0.01   0.04     0.11   0.03  -0.07
   3   6    -0.01  -0.16  -0.01    -0.03   0.06   0.03     0.02  -0.09  -0.02
   4   6     0.12  -0.06   0.12    -0.05  -0.02   0.02     0.04   0.01   0.00
   5   6     0.10  -0.06   0.13    -0.01  -0.01  -0.02     0.00   0.01   0.02
   6   6    -0.07  -0.07  -0.01     0.05   0.17  -0.02    -0.07  -0.12  -0.00
   7   6    -0.03  -0.03  -0.13     0.06   0.05  -0.14    -0.08   0.05   0.14
   8   6    -0.25   0.11   0.14     0.10   0.09   0.02    -0.08  -0.04  -0.08
   9   6     0.06   0.11   0.05     0.35  -0.03   0.04    -0.18   0.04  -0.12
  10   6    -0.10   0.06  -0.15    -0.02  -0.10  -0.20     0.23   0.05   0.06
  11   6     0.05   0.13   0.02     0.15  -0.20   0.06     0.19  -0.09   0.04
  12   6    -0.01  -0.01   0.06     0.03  -0.10   0.32     0.17   0.01   0.07
  13   6    -0.03  -0.06   0.03    -0.08   0.09   0.23     0.15   0.27   0.07
  14   6     0.04   0.01  -0.05    -0.09  -0.10  -0.06    -0.12  -0.23   0.01
  15   6    -0.01  -0.01  -0.00    -0.05  -0.00  -0.19    -0.08  -0.06  -0.17
  16   6     0.01   0.03   0.00    -0.17  -0.03  -0.04    -0.15   0.06   0.02
  17   6     0.01  -0.01   0.01    -0.14   0.08  -0.00    -0.21   0.09  -0.03
  18   1    -0.15  -0.13   0.31     0.02   0.03  -0.06    -0.02  -0.05   0.09
  19   1     0.27  -0.10  -0.05    -0.06   0.02   0.00     0.10  -0.03   0.00
  20   1    -0.20   0.19  -0.14     0.03  -0.03   0.02    -0.03   0.04  -0.03
  21   1     0.12  -0.04  -0.14    -0.03   0.01   0.02     0.06  -0.01  -0.05
  22   1     0.06   0.13  -0.09    -0.03  -0.02   0.01     0.04   0.05  -0.03
  23   1    -0.02  -0.10   0.05    -0.01   0.04  -0.01     0.01  -0.07   0.03
  24   1    -0.06  -0.06  -0.06     0.00   0.03   0.04    -0.02  -0.04  -0.05
  25   1     0.05   0.01   0.00    -0.02  -0.02   0.02     0.02   0.02  -0.02
  26   1     0.05  -0.00   0.07    -0.02  -0.01  -0.01     0.01   0.02   0.02
  27   1     0.02  -0.01   0.04     0.00  -0.02  -0.04    -0.00   0.02   0.04
  28   1     0.05  -0.02   0.02    -0.02  -0.02   0.02     0.02   0.02  -0.02
  29   1    -0.05  -0.03  -0.02     0.03   0.07   0.05    -0.04  -0.05  -0.05
  30   1    -0.05  -0.04   0.03     0.01   0.09  -0.04    -0.01  -0.08   0.04
  31   1     0.04   0.03  -0.10     0.07   0.02  -0.08    -0.09  -0.00   0.10
  32   1    -0.05  -0.09  -0.06    -0.02  -0.02  -0.07     0.03   0.07   0.08
  33   1    -0.15   0.07  -0.04    -0.01   0.03  -0.03    -0.00  -0.04  -0.01
  34   1    -0.12   0.03   0.15     0.02   0.07   0.06    -0.01  -0.04  -0.06
  35   1     0.06   0.04  -0.05     0.17   0.02  -0.08    -0.11  -0.03   0.03
  36   1     0.08   0.05   0.08     0.17  -0.04   0.09    -0.10   0.06  -0.10
  37   1    -0.10   0.07  -0.07    -0.10   0.06  -0.12     0.13  -0.04   0.06
  38   1    -0.02  -0.06  -0.10    -0.00  -0.16  -0.14     0.09   0.12   0.04
  39   1     0.04   0.07  -0.02     0.10  -0.09   0.03     0.05  -0.06   0.04
  40   1     0.04   0.05   0.05     0.07  -0.07  -0.02     0.06  -0.04  -0.03
  41   1     0.01  -0.02   0.03    -0.03  -0.03   0.10     0.02  -0.02   0.04
  42   1    -0.02  -0.01  -0.00     0.04  -0.04   0.07     0.07  -0.01  -0.01
  43   1    -0.02  -0.02  -0.01    -0.01   0.04   0.14     0.12   0.10   0.17
  44   1    -0.02  -0.03   0.02    -0.07   0.10   0.04     0.02   0.23  -0.06
  45   1     0.05  -0.02  -0.04    -0.03  -0.02   0.00    -0.13  -0.02   0.06
  46   1     0.01   0.05  -0.03    -0.06  -0.05  -0.04    -0.04  -0.18   0.02
  47   1    -0.02   0.01   0.01     0.02  -0.03  -0.10     0.00  -0.06  -0.12
  48   1    -0.01  -0.03  -0.00    -0.02   0.07  -0.08    -0.03   0.06  -0.08
  49   1     0.01   0.01   0.01    -0.06  -0.01  -0.04    -0.03   0.02   0.03
  50   1     0.00   0.02  -0.01    -0.07  -0.02   0.00    -0.05   0.05  -0.01
  51   1     0.02  -0.01   0.01    -0.09   0.03  -0.03    -0.05   0.03   0.02
  52   1    -0.01  -0.03   0.00    -0.01   0.09   0.01    -0.06  -0.01  -0.04
  53   1    -0.01   0.01  -0.00    -0.00  -0.01   0.02    -0.09   0.06  -0.03
                     22                     23                     24
                        a                      a                      a 
 Frequencies --   281.1113               303.9755               339.0998
 Red. masses --     5.8172                 7.5514                 7.7048
 Frc consts  --     0.0000                 0.0000                 0.0000
 IR Inten    --     0.2689                 0.3785                 0.3014
 Raman Activ --     0.0000                 0.0000                 0.0000
 Depolar     --     0.0000                 0.0000                 0.0000
 Atom AN      X      Y      Z        X      Y      Z        X      Y      Z
   1   6     0.02  -0.00   0.02    -0.20   0.05  -0.07    -0.25   0.05  -0.09
   2   6     0.05   0.01  -0.03    -0.16  -0.11   0.08    -0.07  -0.17   0.02
   3   6     0.01  -0.04   0.00     0.04   0.16  -0.05     0.13   0.15  -0.04
   4   6     0.02   0.00   0.01     0.10  -0.02   0.00     0.22  -0.04   0.06
   5   6     0.01   0.00   0.01     0.08  -0.09   0.07     0.16  -0.14   0.12
   6   6    -0.02  -0.03  -0.00     0.07  -0.12   0.05     0.03  -0.18   0.01
   7   6    -0.03   0.03   0.06     0.12  -0.23  -0.17     0.09   0.09   0.03
   8   6    -0.05  -0.01  -0.05    -0.10  -0.01   0.23    -0.18   0.06  -0.14
   9   6    -0.00   0.00  -0.07    -0.23   0.13   0.15     0.08   0.08  -0.23
  10   6     0.08   0.03   0.02    -0.00   0.01  -0.09     0.14   0.21   0.06
  11   6     0.05   0.01   0.00     0.14   0.13   0.04    -0.02  -0.05  -0.08
  12   6     0.02  -0.06  -0.00     0.17   0.03  -0.10    -0.13  -0.03   0.13
  13   6    -0.02  -0.13  -0.02     0.18   0.05  -0.10    -0.16  -0.03   0.14
  14   6     0.03   0.20   0.19     0.04  -0.07   0.04    -0.06   0.05  -0.03
  15   6     0.15   0.31   0.01     0.02   0.03  -0.03    -0.04  -0.02  -0.00
  16   6    -0.19  -0.35  -0.06    -0.07  -0.04   0.04     0.02   0.03  -0.05
  17   6    -0.13   0.08  -0.06    -0.13   0.05  -0.04     0.08  -0.03   0.03
  18   1    -0.01  -0.01   0.04    -0.00   0.09  -0.08    -0.03   0.11  -0.02
  19   1     0.03  -0.01  -0.00    -0.16   0.03  -0.03    -0.16   0.02  -0.05
  20   1    -0.02   0.02  -0.01    -0.02  -0.03   0.01    -0.08   0.00  -0.03
  21   1     0.03  -0.01  -0.02    -0.11   0.02   0.08    -0.08  -0.01   0.05
  22   1     0.02   0.03  -0.01    -0.03  -0.12   0.06     0.00  -0.12   0.04
  23   1     0.00  -0.03   0.01    -0.00   0.12  -0.07     0.00   0.14  -0.07
  24   1    -0.01  -0.02  -0.01     0.07   0.07   0.06     0.10   0.07   0.08
  25   1     0.01   0.01  -0.01     0.02  -0.03   0.02     0.05  -0.02   0.03
  26   1     0.01   0.01   0.01     0.05  -0.03  -0.03     0.10  -0.03  -0.01
  27   1     0.00   0.00   0.01    -0.00  -0.02   0.02     0.02  -0.03   0.04
  28   1     0.01   0.01  -0.01     0.03  -0.03   0.02     0.07  -0.05   0.02
  29   1    -0.02  -0.02  -0.02     0.03  -0.03   0.02    -0.06  -0.07  -0.06
  30   1    -0.00  -0.03   0.01    -0.01  -0.01   0.01     0.02  -0.12   0.06
  31   1    -0.04  -0.00   0.04     0.15  -0.02  -0.17    -0.02   0.01   0.05
  32   1     0.02   0.04   0.04    -0.05  -0.21  -0.12     0.06   0.06   0.04
  33   1    -0.02  -0.02  -0.02    -0.04   0.07   0.05    -0.15   0.01  -0.12
  34   1    -0.02  -0.01  -0.00    -0.05  -0.05   0.08    -0.11  -0.02   0.07
  35   1    -0.01  -0.02  -0.02    -0.10   0.05   0.11     0.05  -0.03  -0.13
  36   1     0.00   0.01  -0.02    -0.10   0.11  -0.01     0.07   0.01  -0.01
  37   1     0.05  -0.02   0.02    -0.06   0.04  -0.05     0.16  -0.02   0.06
  38   1     0.02   0.04   0.02     0.03  -0.03  -0.09     0.03   0.17   0.10
  39   1     0.01   0.01  -0.00     0.06   0.09  -0.03    -0.03  -0.08   0.03
  40   1     0.03   0.01   0.01     0.03   0.06   0.07     0.03  -0.05  -0.10
  41   1     0.02  -0.02  -0.01     0.07  -0.02  -0.01    -0.06   0.01   0.03
  42   1    -0.01  -0.01   0.00     0.03   0.00  -0.05    -0.04  -0.00   0.05
  43   1    -0.05  -0.05  -0.09     0.08   0.02  -0.00    -0.07  -0.01   0.03
  44   1     0.02  -0.13   0.04     0.06   0.04  -0.04    -0.06  -0.01   0.05
  45   1     0.02   0.08   0.13    -0.04   0.01   0.05     0.02  -0.01  -0.04
  46   1     0.01  -0.01   0.07     0.03  -0.08   0.04    -0.03   0.06  -0.03
  47   1     0.18   0.03  -0.04     0.04  -0.01  -0.04    -0.04   0.01   0.02
  48   1     0.06   0.22  -0.01    -0.00   0.06  -0.03    -0.01  -0.04   0.01
  49   1    -0.14  -0.15  -0.21    -0.03  -0.02  -0.01     0.01   0.01  -0.00
  50   1    -0.05  -0.28   0.10    -0.02  -0.03   0.02    -0.00   0.02  -0.02
  51   1    -0.27   0.04  -0.14    -0.06   0.02  -0.00     0.04  -0.02   0.00
  52   1     0.07   0.28   0.01    -0.02   0.02  -0.04     0.01  -0.01   0.04
  53   1     0.09  -0.13   0.06    -0.05   0.02  -0.02     0.04  -0.02   0.01
                     25                     26                     27
                        a                      a                      a 
 Frequencies --   354.1324               401.4375               407.3378
 Red. masses --     8.7612                 8.3537                 8.1274
 Frc consts  --     0.0000                 0.0000                 0.0000
 IR Inten    --     0.0259                 0.1816                 0.5882
 Raman Activ --     0.0000                 0.0000                 0.0000
 Depolar     --     0.0000                 0.0000                 0.0000
 Atom AN      X      Y      Z        X      Y      Z        X      Y      Z
   1   6    -0.18   0.01  -0.11     0.14  -0.03   0.06     0.07  -0.02   0.03
   2   6    -0.08  -0.02  -0.12    -0.14   0.20   0.04    -0.10   0.12   0.03
   3   6    -0.14   0.07   0.37    -0.23  -0.03   0.04    -0.13  -0.01   0.00
   4   6    -0.07   0.01   0.36    -0.16   0.02   0.01    -0.08   0.00   0.00
   5   6     0.20  -0.01  -0.29    -0.05   0.03  -0.11    -0.01  -0.00  -0.05
   6   6     0.19  -0.01  -0.38     0.16  -0.11   0.02     0.10  -0.08   0.02
   7   6     0.08   0.01   0.11     0.19  -0.25  -0.05     0.13  -0.10  -0.02
   8   6     0.02  -0.04   0.04     0.01  -0.12   0.11    -0.00  -0.05   0.02
   9   6    -0.03  -0.03   0.03     0.01   0.11  -0.08     0.03   0.04  -0.06
  10   6    -0.03  -0.05  -0.00     0.26   0.13  -0.05     0.00   0.14   0.05
  11   6    -0.00   0.01   0.03     0.15   0.06  -0.11    -0.15   0.08  -0.16
  12   6     0.03   0.01  -0.03    -0.04  -0.02   0.09    -0.19   0.07   0.01
  13   6     0.03   0.01  -0.03    -0.13   0.01   0.07     0.01  -0.08   0.21
  14   6     0.01  -0.01   0.00    -0.15   0.07   0.06     0.23  -0.09  -0.16
  15   6     0.01  -0.00   0.00    -0.17   0.07   0.05     0.28  -0.12  -0.13
  16   6     0.00  -0.00   0.01    -0.05   0.04  -0.21     0.07  -0.06   0.31
  17   6    -0.01   0.00  -0.00     0.16  -0.07   0.02    -0.24   0.12  -0.03
  18   1    -0.06   0.02   0.03     0.01  -0.10  -0.04     0.01  -0.06  -0.03
  19   1    -0.04  -0.01  -0.05     0.10  -0.01   0.04     0.05  -0.00   0.03
  20   1    -0.10   0.03  -0.07     0.09  -0.00   0.05     0.06  -0.01   0.03
  21   1     0.04  -0.05  -0.08    -0.02   0.05   0.00    -0.03   0.03   0.01
  22   1    -0.07   0.08  -0.09    -0.06   0.06  -0.00    -0.04   0.03   0.01
  23   1    -0.10   0.08   0.09    -0.04  -0.09   0.06    -0.03  -0.05   0.03
  24   1    -0.05   0.05   0.16    -0.13  -0.03  -0.06    -0.07  -0.01  -0.04
  25   1    -0.08   0.02   0.12    -0.05   0.01  -0.01    -0.02   0.00  -0.00
  26   1    -0.07   0.01   0.11    -0.07   0.01   0.02    -0.03   0.00   0.01
  27   1     0.11  -0.02  -0.10    -0.02   0.02  -0.01    -0.01   0.01  -0.00
  28   1     0.12  -0.03  -0.10    -0.02   0.02  -0.03    -0.01   0.01  -0.02
  29   1     0.09  -0.01  -0.12     0.09  -0.04   0.01     0.04  -0.03  -0.01
  30   1     0.09  -0.02  -0.11     0.05  -0.02  -0.01     0.03  -0.03   0.01
  31   1    -0.09  -0.00   0.10     0.14  -0.05  -0.09     0.08  -0.02  -0.04
  32   1     0.14   0.04   0.12    -0.01  -0.16  -0.06     0.01  -0.07  -0.03
  33   1     0.01  -0.02   0.02    -0.04  -0.01  -0.00    -0.03  -0.00  -0.03
  34   1     0.01  -0.02   0.00    -0.03  -0.08   0.07    -0.02  -0.05   0.04
  35   1    -0.02  -0.00   0.03    -0.03   0.03   0.03     0.02   0.01  -0.03
  36   1    -0.02  -0.00  -0.00    -0.02   0.09  -0.06     0.02   0.00  -0.00
  37   1    -0.03  -0.00  -0.01     0.15  -0.02   0.02     0.09  -0.01   0.04
  38   1    -0.01  -0.03  -0.02     0.07   0.12   0.04    -0.03   0.10   0.10
  39   1     0.00   0.02  -0.00     0.04   0.01  -0.03    -0.07  -0.00  -0.02
  40   1    -0.01   0.01   0.02     0.08   0.01  -0.03    -0.04   0.01  -0.07
  41   1     0.02  -0.00  -0.01    -0.02  -0.01   0.03    -0.10   0.04   0.00
  42   1     0.01   0.00  -0.01    -0.03  -0.00   0.02    -0.09   0.03   0.02
  43   1     0.02   0.00  -0.01    -0.06   0.00   0.01     0.01  -0.02   0.07
  44   1     0.01   0.00  -0.01    -0.05  -0.01   0.03    -0.01   0.00   0.05
  45   1    -0.01   0.00   0.01    -0.04   0.02   0.02     0.15  -0.07  -0.10
  46   1     0.01  -0.01   0.01    -0.03   0.02   0.03     0.00   0.07  -0.12
  47   1     0.00  -0.00  -0.00    -0.11   0.05   0.05     0.18  -0.08  -0.09
  48   1     0.00   0.00  -0.00    -0.02  -0.06   0.06     0.02   0.08  -0.12
  49   1     0.00   0.00   0.00    -0.03   0.01  -0.08     0.04  -0.01   0.12
  50   1     0.00   0.00   0.00    -0.02  -0.02  -0.04     0.02   0.03   0.06
  51   1    -0.00   0.00   0.00     0.09  -0.04  -0.01    -0.15   0.06   0.01
  52   1    -0.00  -0.00  -0.01    -0.00  -0.01   0.11     0.01   0.02  -0.15
  53   1    -0.01   0.00  -0.00     0.11  -0.06   0.01    -0.17   0.08  -0.01
                     28                     29                     30
                        a                      a                      a 
 Frequencies --   445.4222               494.3152               514.8849
 Red. masses --     8.2223                 8.2803                 8.4114
 Frc consts  --     0.0000                 0.0000                 0.0000
 IR Inten    --     0.7623                 0.2020                 0.3040
 Raman Activ --     0.0000                 0.0000                 0.0000
 Depolar     --     0.0000                 0.0000                 0.0000
 Atom AN      X      Y      Z        X      Y      Z        X      Y      Z
   1   6    -0.10   0.02  -0.07     0.04  -0.01   0.06     0.01  -0.00   0.02
   2   6     0.23  -0.22  -0.09    -0.20   0.17   0.07    -0.06   0.05   0.02
   3   6     0.21  -0.01   0.13    -0.12   0.03  -0.22    -0.03   0.01  -0.08
   4   6    -0.04   0.06  -0.02     0.24  -0.13   0.08     0.09  -0.05   0.03
   5   6    -0.09   0.09  -0.05     0.26  -0.09   0.10     0.10  -0.02   0.02
   6   6    -0.14   0.14  -0.01    -0.06   0.11  -0.19    -0.05   0.05  -0.10
   7   6    -0.30  -0.22   0.02    -0.19   0.10   0.02    -0.16  -0.11   0.02
   8   6     0.08  -0.16   0.17    -0.05   0.05   0.04     0.02  -0.07   0.06
   9   6     0.05   0.01   0.05    -0.04  -0.11   0.16     0.05   0.07  -0.05
  10   6     0.24  -0.02  -0.06     0.17  -0.26  -0.05     0.10   0.07  -0.05
  11   6     0.08   0.15  -0.22     0.05   0.11  -0.19     0.13  -0.05   0.09
  12   6    -0.13   0.05   0.06    -0.10   0.07   0.01     0.06  -0.08   0.04
  13   6    -0.08  -0.04   0.18    -0.00  -0.04   0.16    -0.31   0.10  -0.28
  14   6     0.01   0.00  -0.04     0.05  -0.03  -0.01    -0.33   0.19  -0.05
  15   6     0.00  -0.01  -0.04    -0.03   0.02  -0.03     0.16  -0.14   0.04
  16   6    -0.01   0.00  -0.01    -0.05   0.01  -0.06     0.20  -0.06   0.27
  17   6    -0.00   0.00   0.00     0.01  -0.01  -0.00    -0.02   0.04   0.02
  18   1     0.00   0.12   0.06    -0.01  -0.09  -0.06    -0.01  -0.03  -0.01
  19   1    -0.09   0.00  -0.05     0.06   0.00   0.05     0.02  -0.00   0.01
  20   1    -0.11   0.00  -0.07     0.08  -0.00   0.06     0.02   0.00   0.01
  21   1     0.11  -0.09  -0.06    -0.14   0.10   0.08    -0.05   0.03   0.02
  22   1     0.06   0.00  -0.05    -0.02  -0.06   0.07    -0.01  -0.02   0.02
  23   1     0.04   0.08  -0.02    -0.03  -0.06  -0.01    -0.01  -0.02  -0.00
  24   1     0.13   0.02   0.10    -0.10  -0.00  -0.11    -0.03  -0.00  -0.04
  25   1    -0.04   0.02   0.01     0.13  -0.06   0.01     0.05  -0.02   0.01
  26   1    -0.03   0.02  -0.01     0.11  -0.06  -0.00     0.04  -0.02  -0.00
  27   1    -0.02   0.02  -0.03     0.12  -0.04   0.01     0.06  -0.01  -0.00
  28   1    -0.03   0.02  -0.00     0.11  -0.04   0.01     0.05  -0.01  -0.00
  29   1     0.06   0.07   0.09    -0.02   0.05  -0.02     0.04   0.03   0.03
  30   1    -0.08   0.14  -0.08    -0.03   0.05  -0.06    -0.04   0.07  -0.06
  31   1    -0.04  -0.04  -0.04    -0.15   0.02   0.06    -0.07  -0.01   0.00
  32   1    -0.11  -0.10  -0.01     0.03   0.07   0.07    -0.02  -0.04   0.02
  33   1     0.10  -0.10   0.11     0.04   0.01   0.06     0.04  -0.07   0.04
  34   1     0.08   0.02  -0.05     0.02   0.07  -0.04     0.03   0.01  -0.03
  35   1    -0.04   0.01   0.10    -0.07  -0.07   0.12     0.01   0.04  -0.00
  36   1    -0.03   0.08  -0.05    -0.06   0.05  -0.02     0.01   0.04  -0.02
  37   1     0.15  -0.04   0.00     0.07  -0.06  -0.03     0.02   0.02  -0.01
  38   1     0.04   0.05   0.06     0.02  -0.09   0.02     0.05   0.03  -0.04
  39   1     0.04   0.07  -0.09     0.06   0.11  -0.12     0.04  -0.03   0.03
  40   1     0.03   0.06  -0.01    -0.02   0.08   0.05     0.07  -0.03   0.01
  41   1    -0.08   0.02   0.02    -0.07   0.03   0.01     0.07  -0.04   0.01
  42   1    -0.09   0.02   0.02    -0.08   0.03   0.01     0.05  -0.03  -0.01
  43   1    -0.03  -0.01   0.05     0.01  -0.01   0.06    -0.17   0.02  -0.18
  44   1    -0.04  -0.01   0.05    -0.01   0.01   0.04    -0.09  -0.08  -0.02
  45   1     0.05  -0.02  -0.04     0.06  -0.03  -0.02    -0.19   0.08   0.00
  46   1    -0.02   0.06  -0.04     0.00   0.05  -0.02    -0.10  -0.04  -0.00
  47   1     0.00  -0.00  -0.01    -0.03   0.01  -0.00     0.13  -0.07  -0.01
  48   1    -0.01  -0.00  -0.02    -0.02  -0.01  -0.01     0.07   0.05   0.01
  49   1    -0.00   0.00  -0.00    -0.03   0.00  -0.03     0.12   0.00   0.17
  50   1    -0.01   0.00  -0.00    -0.01  -0.01  -0.01     0.05   0.08   0.01
  51   1    -0.00   0.00   0.00     0.01  -0.01  -0.00    -0.07   0.03   0.01
  52   1    -0.00   0.00   0.00    -0.01   0.00   0.03     0.06   0.01  -0.11
  53   1    -0.00  -0.00   0.00     0.02  -0.01  -0.00    -0.09   0.04   0.01
                     31                     32                     33
                        a                      a                      a 
 Frequencies --   522.6042               741.5302               764.3068
 Red. masses --     8.2285                 2.5807                 2.1117
 Frc consts  --     0.0000                 0.0000                 0.0000
 IR Inten    --     1.9272                10.2442                30.8763
 Raman Activ --     0.0000                 0.0000                 0.0000
 Depolar     --     0.0000                 0.0000                 0.0000
 Atom AN      X      Y      Z        X      Y      Z        X      Y      Z
   1   6     0.00  -0.00   0.02     0.00   0.00   0.00    -0.01  -0.02  -0.01
   2   6    -0.08   0.06   0.02     0.01  -0.01   0.00     0.02   0.00  -0.02
   3   6    -0.03   0.01  -0.10     0.00   0.00  -0.01     0.03   0.03   0.01
   4   6     0.13  -0.06   0.05    -0.01  -0.00  -0.01     0.03   0.07   0.03
   5   6     0.14  -0.02   0.01    -0.05  -0.04   0.05     0.05   0.11  -0.01
   6   6    -0.07   0.07  -0.14    -0.06  -0.08  -0.03     0.02   0.11   0.01
   7   6    -0.29  -0.25   0.04     0.03  -0.09  -0.11    -0.03   0.04   0.05
   8   6     0.06  -0.18   0.09     0.12  -0.05  -0.11    -0.04  -0.04   0.00
   9   6     0.10   0.15  -0.14     0.16  -0.00   0.07     0.02  -0.05  -0.00
  10   6    -0.21   0.38   0.07     0.11   0.07   0.09     0.06   0.01   0.04
  11   6    -0.12  -0.04   0.14    -0.00   0.10   0.05     0.02   0.11   0.00
  12   6     0.06  -0.03  -0.01    -0.03   0.06  -0.04    -0.00   0.12   0.03
  13   6     0.18  -0.03   0.02     0.00  -0.01   0.02     0.04   0.06   0.06
  14   6     0.15  -0.09   0.03     0.01  -0.01   0.00     0.05   0.01  -0.02
  15   6    -0.06   0.06   0.00     0.00  -0.00  -0.00     0.03  -0.03  -0.05
  16   6    -0.08   0.03  -0.10    -0.00   0.00  -0.00    -0.01   0.02  -0.01
  17   6     0.01  -0.02  -0.01    -0.00   0.00   0.00    -0.02   0.00   0.02
  18   1    -0.01  -0.03  -0.02     0.00   0.01   0.00    -0.00   0.00   0.01
  19   1     0.02   0.00   0.02    -0.00   0.00  -0.00    -0.01   0.01   0.01
  20   1     0.03  -0.00   0.02    -0.00  -0.00  -0.00    -0.03  -0.02  -0.01
  21   1    -0.06   0.04   0.03     0.00  -0.00   0.00    -0.02   0.02   0.02
  22   1    -0.01  -0.03   0.03     0.00  -0.00   0.00    -0.01  -0.04  -0.00
  23   1    -0.01  -0.02  -0.00     0.01   0.01  -0.01    -0.03  -0.08   0.10
  24   1    -0.04  -0.00  -0.05     0.00   0.00   0.01    -0.01  -0.04  -0.12
  25   1     0.06  -0.03   0.01    -0.01   0.04  -0.03     0.01  -0.17   0.17
  26   1     0.05  -0.03  -0.00     0.03   0.01   0.04    -0.11  -0.07  -0.20
  27   1     0.08  -0.02  -0.00    -0.01   0.07   0.17    -0.07  -0.10  -0.29
  28   1     0.07  -0.01  -0.01     0.02   0.10  -0.10    -0.00  -0.20   0.21
  29   1     0.08   0.05   0.06     0.04   0.07   0.19    -0.04  -0.08  -0.22
  30   1    -0.07   0.13  -0.11    -0.03   0.15  -0.15    -0.03  -0.15   0.18
  31   1    -0.10  -0.04  -0.00    -0.16  -0.04   0.08     0.08   0.00  -0.03
  32   1    -0.05  -0.10   0.03     0.10   0.15   0.04    -0.06  -0.07  -0.02
  33   1     0.08  -0.16   0.08    -0.22   0.02  -0.25     0.02  -0.07   0.03
  34   1     0.07  -0.00  -0.07    -0.09   0.01   0.26     0.02   0.00  -0.05
  35   1     0.12   0.12  -0.13    -0.14   0.03   0.31    -0.04  -0.06   0.04
  36   1     0.09  -0.05   0.05    -0.17   0.04  -0.24    -0.03   0.01  -0.05
  37   1    -0.06   0.08   0.05    -0.17   0.13  -0.03    -0.08   0.04  -0.00
  38   1    -0.04   0.13   0.01     0.02  -0.19  -0.09     0.01  -0.09  -0.04
  39   1    -0.10  -0.11   0.13    -0.05  -0.16   0.16     0.01  -0.18   0.15
  40   1     0.01  -0.07  -0.10    -0.06  -0.05  -0.21    -0.09  -0.04  -0.23
  41   1     0.03  -0.01  -0.00     0.01  -0.11   0.07    -0.03  -0.22   0.19
  42   1     0.04  -0.01  -0.01    -0.10  -0.02  -0.14    -0.10  -0.06  -0.28
  43   1     0.09  -0.00   0.05     0.01  -0.01  -0.03     0.01  -0.04  -0.18
  44   1     0.06   0.04  -0.02    -0.01  -0.03   0.02    -0.06  -0.14   0.13
  45   1     0.06  -0.02   0.02     0.01  -0.01  -0.01    -0.04   0.04   0.05
  46   1     0.06  -0.02   0.02    -0.00   0.01  -0.01    -0.02  -0.08  -0.02
  47   1    -0.05   0.03   0.01    -0.00  -0.00  -0.00    -0.04   0.04   0.05
  48   1    -0.03  -0.02   0.00     0.00  -0.00  -0.00    -0.02  -0.10  -0.02
  49   1    -0.05  -0.00  -0.07    -0.00   0.00  -0.00    -0.01   0.00  -0.02
  50   1    -0.02  -0.04  -0.00    -0.00  -0.00   0.00    -0.02  -0.01   0.01
  51   1     0.03  -0.01  -0.00     0.00  -0.00  -0.00    -0.00  -0.00  -0.00
  52   1    -0.02  -0.00   0.04    -0.00  -0.00   0.00    -0.01  -0.00  -0.00
  53   1     0.04  -0.02  -0.00    -0.00  -0.00   0.00    -0.02  -0.00   0.01
                     34                     35                     36
                        a                      a                      a 
 Frequencies --   771.9994               777.9944               791.3646
 Red. masses --     2.4635                 2.6847                 3.2093
 Frc consts  --     0.0000                 0.0000                 0.0000
 IR Inten    --     0.2206                10.5155                 1.5014
 Raman Activ --     0.0000                 0.0000                 0.0000
 Depolar     --     0.0000                 0.0000                 0.0000
 Atom AN      X      Y      Z        X      Y      Z        X      Y      Z
   1   6    -0.01  -0.02  -0.03     0.01   0.03   0.03     0.01  -0.03  -0.05
   2   6     0.05  -0.00  -0.04    -0.06  -0.00   0.05     0.10   0.01  -0.10
   3   6     0.05   0.07   0.02    -0.06  -0.08  -0.02     0.07   0.11   0.04
   4   6     0.02   0.10   0.04    -0.01  -0.10  -0.04    -0.02   0.07   0.05
   5   6     0.00   0.07   0.01     0.03  -0.03  -0.02    -0.07  -0.07  -0.00
   6   6    -0.02   0.01  -0.01     0.04   0.05   0.02    -0.01  -0.14   0.00
   7   6    -0.00  -0.03  -0.01    -0.03   0.05   0.05     0.06  -0.02  -0.05
   8   6     0.04  -0.03  -0.01    -0.09   0.01   0.00     0.00   0.06  -0.00
   9   6     0.06   0.02  -0.01    -0.04  -0.04   0.00    -0.11   0.01   0.05
  10   6     0.03   0.03   0.02     0.03  -0.00   0.02    -0.09  -0.04  -0.04
  11   6     0.01  -0.01   0.06     0.05   0.07   0.01     0.00  -0.04  -0.07
  12   6     0.00  -0.06  -0.09     0.05   0.10  -0.04     0.06   0.06   0.05
  13   6    -0.04  -0.09  -0.04     0.04   0.01   0.06     0.10   0.09   0.08
  14   6    -0.12  -0.02   0.11    -0.07   0.02   0.12     0.03   0.07   0.04
  15   6    -0.11  -0.01   0.12    -0.11  -0.09   0.07    -0.02  -0.09  -0.03
  16   6    -0.04  -0.06  -0.03    -0.09  -0.09  -0.09    -0.09  -0.07  -0.09
  17   6     0.05  -0.01  -0.05     0.01  -0.01  -0.05    -0.03  -0.01  -0.01
  18   1    -0.00   0.02   0.03     0.00  -0.02  -0.04    -0.01   0.03   0.07
  19   1    -0.01   0.02   0.03     0.02  -0.02  -0.03    -0.01   0.05   0.10
  20   1    -0.06  -0.05  -0.03     0.07   0.06   0.03    -0.13  -0.13  -0.06
  21   1    -0.04   0.04   0.04     0.05  -0.05  -0.05    -0.09   0.11   0.12
  22   1    -0.01  -0.09   0.00     0.01   0.10  -0.00    -0.02  -0.21   0.01
  23   1    -0.04  -0.11   0.15     0.04   0.12  -0.16    -0.04  -0.13   0.17
  24   1    -0.03  -0.06  -0.17     0.04   0.06   0.18    -0.06  -0.05  -0.19
  25   1    -0.03  -0.17   0.20     0.05   0.14  -0.18    -0.11  -0.04   0.12
  26   1    -0.09  -0.08  -0.22     0.06   0.07   0.20     0.01  -0.04  -0.10
  27   1    -0.10  -0.05  -0.15     0.09   0.00   0.04    -0.04   0.08   0.17
  28   1     0.02  -0.13   0.12    -0.04   0.06  -0.04     0.04   0.09  -0.14
  29   1     0.01  -0.02  -0.05    -0.03  -0.01  -0.06     0.04   0.06   0.20
  30   1    -0.04  -0.02   0.04     0.04  -0.06   0.05     0.03   0.12  -0.16
  31   1    -0.02  -0.01   0.01     0.08   0.01  -0.03    -0.07  -0.00   0.03
  32   1     0.01   0.02   0.01    -0.05  -0.07  -0.02     0.06   0.07   0.02
  33   1    -0.06  -0.01  -0.07     0.08  -0.04   0.09     0.04   0.10   0.03
  34   1    -0.02  -0.00   0.08     0.03   0.00  -0.13     0.01  -0.02  -0.04
  35   1    -0.04   0.02   0.08     0.01  -0.07  -0.07     0.07   0.03  -0.12
  36   1    -0.05   0.01  -0.08     0.03  -0.00   0.05     0.07  -0.04   0.13
  37   1    -0.05   0.04  -0.01    -0.05   0.02  -0.00     0.11  -0.06   0.01
  38   1     0.01  -0.04  -0.04     0.02  -0.04  -0.03    -0.02   0.11   0.06
  39   1    -0.05   0.03   0.00     0.02  -0.12   0.10     0.07   0.02  -0.06
  40   1     0.04   0.00   0.04    -0.06  -0.03  -0.14    -0.02   0.01   0.04
  41   1     0.07   0.13  -0.15     0.02  -0.14   0.11    -0.07  -0.11   0.12
  42   1     0.02   0.05   0.16    -0.04  -0.03  -0.19     0.05  -0.05  -0.15
  43   1     0.04   0.02   0.18     0.05  -0.03  -0.08     0.00  -0.03  -0.20
  44   1     0.07   0.14  -0.13     0.00  -0.08   0.07    -0.02  -0.17   0.15
  45   1     0.12  -0.13  -0.19     0.09  -0.10  -0.17    -0.03   0.02  -0.00
  46   1     0.05   0.30   0.04     0.04   0.25   0.04     0.01  -0.00   0.02
  47   1     0.13  -0.14  -0.18     0.13  -0.15  -0.17     0.04  -0.04  -0.02
  48   1     0.05   0.30   0.03     0.04   0.26   0.01     0.00   0.02  -0.01
  49   1     0.05   0.02   0.12     0.05   0.04   0.19     0.02   0.04   0.15
  50   1     0.05   0.08  -0.09     0.04   0.15  -0.17     0.02   0.13  -0.14
  51   1     0.01   0.03   0.05    -0.02   0.05   0.09    -0.04   0.04   0.09
  52   1    -0.00   0.03   0.04    -0.02   0.05   0.07    -0.02   0.04   0.06
  53   1     0.11   0.01  -0.06     0.16   0.03  -0.09     0.12   0.03  -0.07
                     37                     38                     39
                        a                      a                      a 
 Frequencies --   808.5840               816.2177               836.1431
 Red. masses --     3.1634                 3.2234                 3.8455
 Frc consts  --     0.0000                 0.0000                 0.0000
 IR Inten    --     3.8664                 6.3825                 0.3109
 Raman Activ --     0.0000                 0.0000                 0.0000
 Depolar     --     0.0000                 0.0000                 0.0000
 Atom AN      X      Y      Z        X      Y      Z        X      Y      Z
   1   6    -0.04  -0.01   0.05     0.06   0.04  -0.01    -0.04  -0.04  -0.02
   2   6    -0.15  -0.04   0.17     0.09   0.02  -0.12    -0.04   0.01   0.05
   3   6    -0.02  -0.05   0.01    -0.04  -0.05  -0.06     0.06   0.07   0.07
   4   6     0.06   0.08  -0.09    -0.05  -0.10   0.07     0.03   0.04  -0.04
   5   6     0.04   0.06   0.08    -0.00   0.05  -0.02     0.01  -0.08  -0.06
   6   6    -0.04  -0.03  -0.03    -0.03   0.13  -0.03     0.09  -0.09   0.09
   7   6     0.01  -0.06  -0.08    -0.01   0.04   0.05    -0.07  -0.01   0.05
   8   6     0.10  -0.02   0.01     0.08  -0.08   0.05    -0.19   0.08  -0.13
   9   6     0.01   0.03   0.02     0.10   0.00  -0.08    -0.01  -0.03   0.07
  10   6    -0.08   0.01  -0.03    -0.01   0.00   0.01     0.15   0.07   0.10
  11   6    -0.05  -0.07  -0.04    -0.07  -0.03   0.02     0.07   0.11  -0.01
  12   6     0.02  -0.03   0.04    -0.04  -0.07   0.02    -0.08  -0.06  -0.06
  13   6     0.09   0.06   0.04     0.05   0.00   0.01    -0.07  -0.11  -0.01
  14   6     0.07   0.09   0.02     0.11   0.11  -0.01     0.05   0.07  -0.04
  15   6     0.02  -0.07  -0.05     0.06  -0.02  -0.06     0.08   0.06  -0.05
  16   6    -0.09  -0.09  -0.09    -0.09  -0.12  -0.10    -0.03  -0.10  -0.04
  17   6    -0.05  -0.02  -0.00    -0.07  -0.04   0.00    -0.05  -0.05   0.02
  18   1     0.02  -0.01  -0.11    -0.02  -0.01   0.07     0.00   0.00  -0.03
  19   1    -0.04  -0.11  -0.20     0.06   0.09   0.16    -0.04  -0.04  -0.07
  20   1     0.19   0.20   0.07    -0.11  -0.14  -0.04     0.03   0.04   0.00
  21   1     0.11  -0.20  -0.22    -0.05   0.13   0.17    -0.00  -0.04  -0.07
  22   1     0.02   0.34  -0.03    -0.00  -0.24   0.02    -0.01   0.09  -0.01
  23   1     0.00   0.02  -0.03     0.01   0.08  -0.10    -0.00  -0.09   0.11
  24   1     0.09  -0.02   0.02    -0.05   0.06   0.12    -0.00  -0.04  -0.11
  25   1     0.09  -0.11   0.05     0.02   0.09  -0.10    -0.06  -0.02   0.05
  26   1    -0.05  -0.03  -0.14    -0.01   0.05   0.17     0.04  -0.03  -0.08
  27   1    -0.10  -0.03  -0.10     0.06  -0.04  -0.09     0.01   0.04   0.10
  28   1     0.04  -0.11   0.12    -0.06  -0.02   0.06     0.03   0.06  -0.11
  29   1     0.03  -0.00   0.01    -0.04  -0.03  -0.16     0.03   0.01   0.10
  30   1    -0.09   0.04  -0.01    -0.03  -0.08   0.10     0.11   0.00  -0.04
  31   1    -0.12  -0.02   0.05     0.06   0.02  -0.04     0.07  -0.03  -0.01
  32   1     0.08   0.09   0.04    -0.05  -0.05  -0.02    -0.06  -0.06  -0.02
  33   1    -0.07   0.06  -0.08    -0.09  -0.08  -0.08     0.12  -0.03   0.11
  34   1    -0.03  -0.00   0.12    -0.03   0.00   0.13     0.04   0.03  -0.23
  35   1     0.01   0.09   0.04    -0.06   0.05   0.12    -0.01  -0.17  -0.05
  36   1    -0.02  -0.02  -0.02    -0.08   0.01  -0.15     0.05   0.03   0.07
  37   1     0.08  -0.04   0.01    -0.01  -0.01   0.01    -0.17   0.14  -0.05
  38   1    -0.03   0.08   0.06    -0.01  -0.01   0.01     0.05  -0.19  -0.11
  39   1     0.01   0.09  -0.09    -0.06   0.06  -0.03    -0.07  -0.06   0.08
  40   1     0.03   0.02   0.11     0.03   0.01   0.08     0.03  -0.02  -0.12
  41   1    -0.06   0.03   0.00    -0.03   0.09  -0.07     0.05   0.08  -0.10
  42   1     0.07  -0.01   0.03     0.02   0.02   0.12    -0.10   0.04   0.12
  43   1    -0.03  -0.00  -0.10    -0.05   0.02   0.02    -0.05   0.03   0.19
  44   1     0.02  -0.09   0.07     0.05  -0.00  -0.00     0.04   0.12  -0.11
  45   1    -0.05   0.07   0.07    -0.05   0.11   0.14     0.00   0.09   0.15
  46   1     0.01  -0.08   0.02     0.01  -0.16   0.02    -0.02  -0.13  -0.01
  47   1     0.03   0.00   0.05     0.02   0.05   0.12    -0.01   0.09   0.15
  48   1    -0.01  -0.05  -0.02    -0.02  -0.13  -0.02    -0.01  -0.15   0.00
  49   1     0.01   0.05   0.18    -0.01   0.06   0.23    -0.03   0.05   0.17
  50   1     0.03   0.15  -0.16     0.05   0.17  -0.19     0.06   0.11  -0.13
  51   1    -0.07   0.06   0.11    -0.11   0.08   0.16    -0.11   0.07   0.13
  52   1    -0.02   0.05   0.06    -0.01   0.07   0.05     0.02   0.06   0.01
  53   1     0.14   0.04  -0.08     0.17   0.06  -0.11     0.12   0.05  -0.09
                     40                     41                     42
                        a                      a                      a 
 Frequencies --   853.1577               883.0165               912.0850
 Red. masses --     5.2820                 5.2575                 5.7699
 Frc consts  --     0.0000                 0.0000                 0.0000
 IR Inten    --     1.8574                 2.2893                 0.8635
 Raman Activ --     0.0000                 0.0000                 0.0000
 Depolar     --     0.0000                 0.0000                 0.0000
 Atom AN      X      Y      Z        X      Y      Z        X      Y      Z
   1   6     0.06   0.07   0.02    -0.01   0.00  -0.02     0.01   0.11  -0.00
   2   6     0.05  -0.03  -0.07    -0.01   0.02  -0.01    -0.03  -0.01  -0.05
   3   6    -0.11  -0.11  -0.06     0.01  -0.02   0.03    -0.11  -0.19  -0.00
   4   6    -0.08   0.01  -0.00     0.01  -0.01  -0.01     0.05   0.12  -0.01
   5   6     0.00   0.14   0.13     0.04   0.00  -0.06     0.09   0.07  -0.06
   6   6     0.06  -0.05  -0.01     0.09  -0.05   0.10     0.07  -0.27   0.10
   7   6     0.07  -0.24  -0.20    -0.12  -0.09   0.05    -0.12   0.01   0.08
   8   6    -0.07  -0.01  -0.17    -0.11   0.06  -0.19    -0.03   0.22  -0.02
   9   6    -0.12  -0.01   0.29     0.10   0.09   0.04     0.06   0.12  -0.17
  10   6     0.01   0.16   0.04     0.14   0.12   0.14     0.09  -0.18  -0.03
  11   6     0.12   0.06  -0.12    -0.06  -0.16   0.01    -0.11  -0.07   0.15
  12   6     0.02  -0.02  -0.01    -0.04  -0.07  -0.12    -0.06   0.08  -0.01
  13   6    -0.03  -0.04   0.01     0.13   0.16   0.17    -0.03  -0.00  -0.04
  14   6    -0.03   0.02  -0.01     0.00   0.09   0.09     0.03  -0.09  -0.03
  15   6     0.01   0.02  -0.01     0.02  -0.22  -0.06    -0.04   0.11   0.02
  16   6     0.01  -0.01   0.01    -0.04   0.08  -0.08     0.02  -0.03   0.06
  17   6     0.00  -0.01   0.00    -0.05   0.08   0.02     0.05  -0.05  -0.02
  18   1    -0.01  -0.01   0.05    -0.01  -0.02  -0.01    -0.05  -0.10  -0.01
  19   1     0.06   0.07   0.11     0.01   0.01   0.02     0.12   0.08   0.14
  20   1    -0.05  -0.07  -0.01    -0.01  -0.02  -0.00     0.00  -0.06   0.02
  21   1     0.03   0.05   0.09     0.00   0.02   0.02     0.11   0.03   0.09
  22   1    -0.00  -0.11   0.00    -0.01  -0.01  -0.00    -0.03  -0.04  -0.02
  23   1    -0.01   0.12  -0.15     0.01   0.00   0.00    -0.06   0.14  -0.14
  24   1     0.01   0.05   0.16    -0.00   0.00   0.02     0.09   0.02   0.19
  25   1     0.09  -0.01  -0.04     0.00   0.01  -0.01     0.14  -0.12   0.06
  26   1    -0.13   0.04   0.05    -0.01   0.01   0.01    -0.20   0.02  -0.09
  27   1    -0.10  -0.04  -0.14     0.00  -0.00  -0.02    -0.18   0.03  -0.05
  28   1    -0.03  -0.10   0.18     0.00  -0.01  -0.00     0.18  -0.11   0.01
  29   1     0.08  -0.04  -0.02     0.07  -0.03   0.01     0.14   0.01   0.22
  30   1    -0.12   0.03   0.04     0.04  -0.03   0.03     0.07   0.09  -0.14
  31   1    -0.23  -0.16   0.18     0.03  -0.06   0.01     0.00   0.08  -0.07
  32   1     0.22   0.17   0.10    -0.07  -0.04  -0.02    -0.09  -0.05  -0.03
  33   1     0.07   0.16   0.04     0.01  -0.05  -0.01     0.02   0.01   0.02
  34   1     0.01  -0.04  -0.12     0.00   0.06  -0.10     0.02   0.09  -0.06
  35   1     0.07  -0.06  -0.09    -0.04  -0.07   0.06    -0.02  -0.01  -0.02
  36   1     0.09  -0.04   0.22    -0.02   0.05  -0.05     0.01   0.10  -0.07
  37   1    -0.02   0.12  -0.06    -0.14   0.19  -0.08     0.02  -0.06   0.01
  38   1     0.01  -0.02  -0.03     0.04  -0.18  -0.11     0.03  -0.04  -0.02
  39   1     0.03  -0.02  -0.01    -0.17   0.17  -0.11    -0.00   0.00   0.02
  40   1     0.06  -0.01  -0.09     0.10   0.02   0.20    -0.11   0.01   0.09
  41   1     0.02   0.02  -0.02    -0.20   0.12  -0.08    -0.02  -0.04   0.04
  42   1    -0.03   0.01   0.03     0.16   0.00   0.08    -0.00  -0.01  -0.07
  43   1    -0.02   0.01   0.05    -0.05  -0.01  -0.21     0.06  -0.01  -0.00
  44   1     0.00   0.03  -0.02     0.07  -0.21   0.18    -0.05   0.03  -0.01
  45   1    -0.00   0.01   0.01    -0.07   0.01  -0.06     0.04  -0.03   0.01
  46   1    -0.02  -0.01  -0.01    -0.02   0.04  -0.00     0.01  -0.01  -0.01
  47   1    -0.01   0.02   0.02     0.03  -0.09  -0.08    -0.04   0.04   0.01
  48   1     0.00  -0.02   0.00     0.01   0.01  -0.03    -0.03   0.01  -0.00
  49   1    -0.01   0.00   0.01     0.07  -0.03  -0.11    -0.05   0.02   0.04
  50   1     0.00   0.00   0.00    -0.10  -0.01   0.03     0.05  -0.02   0.01
  51   1    -0.01   0.00   0.01     0.11  -0.06  -0.10    -0.06   0.03   0.04
  52   1     0.01   0.00  -0.01    -0.08  -0.05   0.06     0.06   0.02  -0.05
  53   1    -0.00   0.00  -0.00    -0.09  -0.05   0.08     0.04   0.03  -0.04
                     43                     44                     45
                        a                      a                      a 
 Frequencies --   921.8870               929.2705               937.8425
 Red. masses --     7.9481                 7.0476                 5.8377
 Frc consts  --     0.0000                 0.0000                 0.0000
 IR Inten    --     0.0909                 2.9950                 0.5699
 Raman Activ --     0.0000                 0.0000                 0.0000
 Depolar     --     0.0000                 0.0000                 0.0000
 Atom AN      X      Y      Z        X      Y      Z        X      Y      Z
   1   6     0.16   0.06   0.15    -0.22  -0.02  -0.20    -0.10  -0.06  -0.09
   2   6     0.08  -0.18  -0.04    -0.11   0.23   0.04    -0.02   0.10   0.04
   3   6    -0.19   0.02  -0.20     0.21  -0.14   0.23     0.14   0.03   0.10
   4   6    -0.06   0.08   0.10     0.10  -0.01  -0.12    -0.02  -0.07  -0.07
   5   6    -0.05   0.01   0.09     0.05   0.02  -0.06    -0.03   0.01   0.08
   6   6    -0.07  -0.02  -0.14    -0.03  -0.03   0.09    -0.01   0.09  -0.05
   7   6     0.14   0.08   0.01    -0.05   0.03  -0.00     0.07  -0.10  -0.10
   8   6     0.02  -0.02   0.15     0.06   0.01   0.02     0.00  -0.04   0.04
   9   6    -0.05   0.01  -0.15    -0.04  -0.06   0.02     0.00   0.17  -0.09
  10   6     0.08  -0.10  -0.00    -0.10  -0.02  -0.04     0.16  -0.09  -0.01
  11   6     0.02   0.01   0.13     0.07   0.08  -0.03    -0.06  -0.17   0.22
  12   6     0.00   0.02  -0.18     0.08  -0.02  -0.04    -0.03   0.13  -0.21
  13   6    -0.03  -0.06   0.10    -0.02  -0.08   0.03    -0.05   0.00   0.11
  14   6    -0.09   0.12   0.15    -0.08   0.11   0.10    -0.14  -0.08   0.09
  15   6     0.25  -0.18  -0.10     0.21  -0.16  -0.05     0.06   0.12  -0.13
  16   6    -0.01   0.06  -0.20    -0.01   0.06  -0.18     0.06  -0.02   0.01
  17   6    -0.20   0.08   0.12    -0.18   0.09   0.10     0.03  -0.10   0.08
  18   1     0.09   0.15   0.09    -0.16  -0.27  -0.15    -0.04  -0.06  -0.05
  19   1    -0.05  -0.01  -0.05     0.13   0.05   0.13     0.00  -0.01  -0.01
  20   1     0.01   0.07   0.01    -0.00  -0.12   0.01    -0.01  -0.03  -0.01
  21   1    -0.01  -0.06  -0.04     0.09   0.09   0.11    -0.01   0.03   0.01
  22   1     0.06  -0.04   0.01    -0.08   0.04  -0.02    -0.02   0.03  -0.00
  23   1    -0.11   0.08  -0.08     0.12  -0.03   0.02     0.10  -0.08   0.06
  24   1    -0.02   0.03   0.00     0.11  -0.03   0.08    -0.00  -0.02  -0.04
  25   1     0.04  -0.05   0.06     0.03  -0.01  -0.03    -0.06   0.06  -0.06
  26   1    -0.06  -0.00  -0.03    -0.02   0.01  -0.02     0.07   0.00   0.05
  27   1    -0.06   0.02   0.04    -0.03   0.01  -0.03     0.06  -0.03  -0.01
  28   1     0.08  -0.03   0.00     0.01  -0.01   0.00    -0.12   0.03   0.06
  29   1    -0.04   0.04   0.05     0.01   0.00   0.04    -0.02  -0.02  -0.09
  30   1     0.00   0.05  -0.10    -0.02   0.02   0.01    -0.11  -0.01   0.07
  31   1     0.01   0.09  -0.04    -0.01   0.02  -0.01    -0.09  -0.04   0.05
  32   1     0.06  -0.04   0.02    -0.05   0.04  -0.03     0.12   0.03   0.06
  33   1     0.03   0.00   0.06    -0.03   0.03  -0.03     0.02   0.02   0.03
  34   1     0.01  -0.08  -0.01    -0.01   0.02   0.06     0.00  -0.05  -0.01
  35   1     0.02  -0.01  -0.09     0.01   0.04   0.00     0.04   0.05  -0.07
  36   1     0.04   0.04   0.02    -0.01  -0.07   0.02     0.05   0.11   0.02
  37   1    -0.05  -0.06   0.04     0.04  -0.07   0.03    -0.02   0.01  -0.02
  38   1     0.07  -0.01  -0.07    -0.03   0.08   0.04     0.12  -0.02  -0.11
  39   1    -0.03  -0.05   0.08     0.07  -0.06   0.04    -0.05   0.05  -0.00
  40   1    -0.06  -0.01  -0.02    -0.01  -0.01  -0.09    -0.08   0.01   0.17
  41   1     0.09   0.02  -0.08     0.15  -0.01  -0.04    -0.05  -0.01  -0.01
  42   1    -0.03   0.02  -0.01    -0.05   0.01   0.01     0.08  -0.00  -0.13
  43   1    -0.01  -0.00   0.07    -0.03   0.01   0.09     0.13  -0.05  -0.03
  44   1     0.11  -0.01  -0.01     0.09   0.02  -0.05    -0.03  -0.02   0.04
  45   1     0.06  -0.01  -0.00     0.02   0.00  -0.01     0.15  -0.09  -0.03
  46   1    -0.10   0.11  -0.05    -0.06   0.08  -0.02    -0.12   0.15  -0.08
  47   1    -0.01   0.00   0.05     0.03  -0.01   0.04    -0.18   0.11   0.02
  48   1     0.14  -0.16   0.07     0.13  -0.10   0.07     0.06  -0.15   0.05
  49   1     0.03   0.00  -0.06     0.05  -0.01  -0.06    -0.16   0.06   0.04
  50   1    -0.09   0.04  -0.04    -0.07   0.03  -0.03     0.04  -0.01  -0.00
  51   1     0.03  -0.03  -0.02     0.05  -0.03  -0.03    -0.19   0.07   0.11
  52   1    -0.12  -0.01   0.11    -0.12  -0.02   0.12     0.13   0.05  -0.14
  53   1    -0.07  -0.03   0.08    -0.06  -0.03   0.07    -0.01   0.07  -0.05
                     46                     47                     48
                        a                      a                      a 
 Frequencies --   950.9661               954.6174               983.7630
 Red. masses --     6.3232                 6.5639                 6.5246
 Frc consts  --     0.0000                 0.0000                 0.0000
 IR Inten    --     1.6110                 0.6508                 2.1786
 Raman Activ --     0.0000                 0.0000                 0.0000
 Depolar     --     0.0000                 0.0000                 0.0000
 Atom AN      X      Y      Z        X      Y      Z        X      Y      Z
   1   6    -0.03  -0.05  -0.04    -0.10   0.04  -0.09     0.02  -0.06  -0.01
   2   6     0.01   0.05   0.03    -0.04   0.06   0.02     0.01   0.03   0.02
   3   6     0.05   0.04   0.06     0.08  -0.10   0.03    -0.00   0.04   0.05
   4   6    -0.05  -0.04  -0.07     0.02   0.08  -0.03    -0.03  -0.05  -0.06
   5   6    -0.01   0.01   0.11    -0.09  -0.02   0.14     0.05   0.04   0.02
   6   6     0.07   0.01  -0.03    -0.20   0.08  -0.22     0.10  -0.08   0.06
   7   6     0.04  -0.12  -0.12     0.27   0.15  -0.02    -0.07  -0.06  -0.05
   8   6    -0.07   0.07   0.04     0.01  -0.18   0.22     0.00   0.15   0.05
   9   6     0.08   0.17  -0.12    -0.08  -0.07  -0.11     0.02   0.04  -0.11
  10   6     0.15  -0.17  -0.09     0.13   0.03   0.08    -0.04  -0.14  -0.04
  11   6    -0.17  -0.02   0.20     0.04   0.04   0.01    -0.02   0.09   0.08
  12   6    -0.18   0.05   0.10    -0.09  -0.05  -0.05     0.05  -0.05  -0.08
  13   6    -0.06   0.01  -0.17     0.06   0.04   0.07     0.14  -0.11   0.16
  14   6     0.22  -0.05  -0.07     0.08   0.05  -0.06    -0.03   0.29   0.06
  15   6     0.06  -0.07   0.18    -0.17  -0.01   0.01    -0.24  -0.11  -0.19
  16   6    -0.05   0.04  -0.06    -0.05  -0.03   0.11    -0.11  -0.09   0.10
  17   6    -0.13   0.11  -0.07     0.14  -0.00  -0.09     0.27   0.00  -0.04
  18   1    -0.00   0.01   0.00    -0.09  -0.17  -0.09     0.03   0.07   0.04
  19   1    -0.03  -0.02  -0.02     0.11   0.05   0.10    -0.06  -0.02  -0.04
  20   1    -0.03  -0.02  -0.02     0.02  -0.06   0.02    -0.04   0.00  -0.03
  21   1    -0.02   0.01  -0.01     0.11   0.03   0.07    -0.06   0.01  -0.02
  22   1    -0.02   0.01  -0.01    -0.02   0.03  -0.01    -0.02  -0.00  -0.01
  23   1     0.06  -0.06   0.04     0.02   0.03  -0.03     0.06  -0.04   0.02
  24   1    -0.03  -0.00  -0.03     0.14  -0.03   0.04    -0.08   0.02  -0.01
  25   1    -0.04   0.05  -0.05     0.04  -0.05   0.04    -0.00   0.04  -0.06
  26   1     0.04   0.01   0.04    -0.03  -0.01  -0.07    -0.00   0.02   0.04
  27   1     0.03  -0.02  -0.01    -0.07   0.03   0.08     0.01  -0.02  -0.05
  28   1    -0.11   0.02   0.07     0.06  -0.00  -0.01    -0.05  -0.01   0.06
  29   1     0.03  -0.02  -0.05    -0.18   0.09   0.02     0.11  -0.04   0.01
  30   1    -0.09   0.01   0.05    -0.03   0.05  -0.09    -0.06   0.02   0.03
  31   1    -0.12  -0.04   0.06     0.03   0.10  -0.04    -0.10   0.02  -0.00
  32   1     0.15   0.02   0.08     0.12  -0.03   0.03     0.03   0.01   0.03
  33   1     0.07   0.03   0.08     0.05  -0.03   0.10     0.01   0.04   0.02
  34   1     0.03   0.03  -0.09    -0.01  -0.21  -0.01     0.02   0.10   0.00
  35   1     0.00   0.00  -0.03     0.01  -0.08  -0.11     0.00   0.04  -0.01
  36   1     0.06   0.21  -0.02     0.05   0.01   0.05     0.01   0.06  -0.03
[...]
  44   1    -0.05  -0.10  -0.14     0.00   0.01   0.01     0.03   0.05   0.08
  45   1    -0.05  -0.12   0.07    -0.10  -0.36   0.16    -0.01  -0.01   0.01
  46   1     0.36  -0.06  -0.42     0.12  -0.01  -0.14     0.12  -0.02  -0.14
  47   1     0.05   0.14  -0.06    -0.07  -0.22   0.10    -0.03  -0.07   0.04
  48   1    -0.05   0.01   0.05    -0.12   0.04   0.13     0.24  -0.05  -0.27
  49   1     0.00   0.01  -0.01    -0.17  -0.58   0.20     0.04   0.15  -0.05
  50   1     0.00   0.01   0.01     0.10   0.18   0.22    -0.05  -0.10  -0.13
  51   1    -0.00  -0.01   0.00     0.03   0.09  -0.04    -0.01  -0.02   0.01
  52   1     0.01  -0.00   0.00    -0.04   0.02  -0.03     0.02  -0.01   0.01
  53   1     0.01   0.02   0.03     0.00  -0.01   0.00     0.01   0.02   0.02
                    142                    143                    144
                        a                      a                      a 
 Frequencies --  2986.6457              2991.6286              2993.5709
 Red. masses --     1.7182                 1.6990                 1.5840
 Frc consts  --     0.0000                 0.0000                 0.0000
 IR Inten    --   110.2728               180.0558                78.5302
 Raman Activ --     0.0000                 0.0000                 0.0000
 Depolar     --     0.0000                 0.0000                 0.0000
 Atom AN      X      Y      Z        X      Y      Z        X      Y      Z
   1   6     0.01  -0.01  -0.01     0.00  -0.00   0.00    -0.00  -0.01   0.01
   2   6    -0.01   0.02   0.01     0.00   0.01  -0.00     0.01   0.01  -0.02
   3   6     0.02   0.03   0.02     0.00   0.00  -0.00    -0.00   0.02  -0.04
   4   6     0.04   0.07   0.08    -0.00   0.00  -0.01    -0.01   0.03  -0.07
   5   6     0.04   0.13  -0.02    -0.00  -0.01  -0.00     0.01   0.13  -0.14
   6   6     0.06   0.07   0.12    -0.01  -0.00  -0.01    -0.01   0.02  -0.07
   7   6     0.02   0.03   0.04     0.00  -0.00  -0.00     0.00  -0.00  -0.02
   8   6     0.01  -0.00   0.01    -0.01  -0.00   0.01    -0.01  -0.00   0.03
   9   6    -0.02   0.01  -0.03     0.00  -0.00  -0.00     0.01  -0.00   0.01
  10   6     0.01  -0.00   0.00    -0.01  -0.01  -0.02     0.01  -0.00   0.00
  11   6     0.00  -0.00   0.03    -0.01  -0.04  -0.04     0.00  -0.00   0.02
  12   6     0.00   0.00   0.00    -0.03  -0.12  -0.06     0.00  -0.00   0.01
  13   6    -0.00  -0.02   0.02    -0.01  -0.06  -0.02    -0.00  -0.00   0.01
  14   6    -0.01  -0.01   0.01     0.05  -0.07  -0.06    -0.00   0.00   0.00
  15   6     0.01  -0.03  -0.00     0.09  -0.08  -0.10    -0.00   0.00   0.00
  16   6    -0.00  -0.01   0.00    -0.01  -0.02  -0.03     0.00   0.00  -0.00
  17   6     0.00   0.00  -0.00     0.01   0.01   0.01     0.00  -0.00   0.00
  18   1    -0.02   0.01  -0.01    -0.01   0.00  -0.00    -0.01   0.00   0.00
  19   1     0.00   0.01  -0.01     0.00   0.00  -0.00     0.01   0.03  -0.02
  20   1    -0.02   0.01   0.04     0.00  -0.00  -0.01     0.01  -0.01  -0.02
  21   1    -0.01  -0.05   0.03    -0.01  -0.03   0.02    -0.01  -0.06   0.03
  22   1     0.04  -0.01  -0.06     0.00   0.00  -0.00    -0.02   0.01   0.03
  23   1    -0.06  -0.08  -0.10     0.00   0.00   0.00     0.05   0.08   0.08
  24   1    -0.01  -0.03   0.02    -0.00  -0.00   0.00    -0.04  -0.16   0.07
  25   1    -0.17  -0.28  -0.30     0.01   0.03   0.03     0.07   0.13   0.12
  26   1     0.01   0.06  -0.01    -0.01  -0.03   0.01    -0.04  -0.23   0.10
  27   1    -0.07  -0.37   0.19     0.00   0.02  -0.01    -0.13  -0.66   0.32
  28   1    -0.06  -0.09  -0.11     0.01   0.01   0.01     0.11   0.20   0.17
  29   1     0.03   0.14  -0.05    -0.01  -0.03   0.01    -0.04  -0.21   0.09
  30   1    -0.23  -0.38  -0.40     0.02   0.04   0.04     0.10   0.16   0.16
  31   1    -0.06  -0.11  -0.12     0.00   0.01   0.01     0.01   0.02   0.02
  32   1     0.01   0.00  -0.00    -0.01  -0.00   0.01    -0.03   0.00   0.04
  33   1     0.02  -0.00  -0.02     0.03   0.00  -0.03     0.10  -0.00  -0.11
  34   1    -0.06   0.01  -0.02    -0.01   0.00  -0.00    -0.05   0.01  -0.01
  35   1     0.12  -0.04   0.07     0.00  -0.00   0.00    -0.03   0.01  -0.02
  36   1    -0.05   0.01   0.04    -0.01   0.00   0.01     0.00  -0.00  -0.00
  37   1     0.00   0.01   0.01     0.01   0.06   0.06     0.00  -0.00  -0.00
  38   1    -0.03   0.01  -0.02     0.01  -0.00   0.00    -0.02   0.01  -0.01
  39   1    -0.02  -0.07  -0.09     0.04   0.11   0.15    -0.01  -0.04  -0.05
  40   1     0.01   0.09  -0.03     0.00   0.02  -0.01     0.01   0.04  -0.01
  41   1    -0.00  -0.00  -0.00     0.07   0.22   0.30    -0.01  -0.02  -0.02
  42   1    -0.00  -0.01   0.00     0.02   0.21  -0.08     0.00   0.02  -0.01
  43   1     0.02   0.11  -0.03     0.02   0.12  -0.04     0.01   0.03  -0.01
  44   1    -0.01  -0.03  -0.04     0.03   0.06   0.11    -0.01  -0.01  -0.02
  45   1     0.01   0.05  -0.02     0.06   0.19  -0.10    -0.00  -0.01   0.01
  46   1     0.01  -0.00  -0.01    -0.24   0.03   0.28     0.02  -0.00  -0.02
  47   1     0.03   0.09  -0.04     0.09   0.22  -0.12    -0.00   0.00   0.00
  48   1    -0.05   0.01   0.06    -0.41   0.09   0.45     0.01  -0.00  -0.01
  49   1     0.01   0.04  -0.02    -0.00  -0.01  -0.00    -0.00  -0.01   0.00
  50   1     0.01   0.01   0.02     0.04   0.08   0.11     0.00   0.00   0.00
  51   1    -0.00  -0.02   0.01    -0.00  -0.01   0.01     0.00   0.00  -0.00
  52   1     0.00   0.00   0.00    -0.01   0.01  -0.01    -0.00   0.00  -0.00
  53   1    -0.00  -0.00  -0.00    -0.02  -0.04  -0.05     0.00   0.00   0.00
                    145                    146                    147
                        a                      a                      a 
 Frequencies --  2998.7368              3013.5542              3020.4750
 Red. masses --     1.5990                 1.6834                 1.6418
 Frc consts  --     0.0000                 0.0000                 0.0000
 IR Inten    --    77.8839                56.8119                93.7565
 Raman Activ --     0.0000                 0.0000                 0.0000
 Depolar     --     0.0000                 0.0000                 0.0000
 Atom AN      X      Y      Z        X      Y      Z        X      Y      Z
   1   6    -0.00   0.00   0.00     0.00  -0.00  -0.00    -0.00  -0.00   0.00
   2   6     0.00  -0.00  -0.00    -0.00   0.00   0.00     0.00   0.00  -0.00
   3   6    -0.00   0.00  -0.00     0.00   0.00   0.00    -0.00   0.00  -0.00
   4   6     0.00   0.00   0.00     0.00   0.01   0.00    -0.00   0.00  -0.01
   5   6     0.00   0.02  -0.01     0.00   0.02  -0.00     0.00   0.02  -0.02
   6   6     0.01   0.01   0.02     0.01   0.02   0.02    -0.00   0.00  -0.02
   7   6    -0.00   0.00   0.00     0.01   0.01   0.00     0.01  -0.00  -0.03
   8   6     0.00  -0.00   0.00     0.07  -0.00  -0.05     0.11   0.01  -0.19
   9   6     0.04  -0.02   0.04     0.16  -0.06   0.13    -0.03   0.01  -0.06
  10   6    -0.00   0.00  -0.00     0.03  -0.01   0.02    -0.01  -0.00  -0.02
  11   6    -0.00   0.03  -0.04     0.00  -0.01   0.00    -0.00  -0.01  -0.02
  12   6     0.01   0.15  -0.13    -0.00  -0.05   0.03    -0.00   0.01  -0.01
  13   6     0.01   0.04  -0.03    -0.00  -0.01   0.01    -0.00   0.00  -0.00
  14   6     0.02   0.02  -0.03    -0.00  -0.01   0.01     0.00   0.00  -0.00
  15   6     0.02   0.01  -0.03    -0.00  -0.00   0.00     0.00  -0.00  -0.00
  16   6     0.00   0.01  -0.01    -0.00  -0.00   0.00     0.00   0.00  -0.00
  17   6     0.00  -0.01   0.01     0.00   0.00  -0.00     0.00  -0.00   0.00
  18   1     0.01  -0.00   0.00    -0.01   0.00  -0.00    -0.00   0.00  -0.00
  19   1     0.00   0.00  -0.00     0.00   0.00  -0.00     0.00   0.01  -0.01
  20   1     0.00  -0.00  -0.00    -0.00   0.00   0.01     0.00  -0.00  -0.01
  21   1     0.00   0.00  -0.00    -0.00  -0.00   0.00    -0.00  -0.00   0.00
  22   1    -0.01   0.00   0.01     0.00  -0.00  -0.00    -0.00   0.00   0.00
  23   1     0.01   0.01   0.01    -0.00  -0.00  -0.00     0.00   0.01   0.01
  24   1    -0.00  -0.02   0.01    -0.00  -0.00   0.00    -0.00  -0.01   0.01
  25   1    -0.01  -0.01  -0.02    -0.01  -0.01  -0.01     0.00   0.01   0.01
  26   1     0.00   0.00  -0.00    -0.00  -0.01   0.00    -0.00  -0.02   0.01
  27   1    -0.01  -0.08   0.04    -0.01  -0.05   0.03    -0.02  -0.12   0.06
  28   1     0.01   0.01   0.01    -0.01  -0.01  -0.01     0.01   0.03   0.02
  29   1     0.00   0.02  -0.01     0.00   0.01  -0.00    -0.01  -0.04   0.02
  30   1    -0.03  -0.05  -0.05    -0.05  -0.08  -0.08     0.02   0.04   0.04
  31   1    -0.00  -0.00  -0.00    -0.01  -0.02  -0.02     0.02   0.03   0.02
  32   1     0.01   0.00  -0.01    -0.01   0.00   0.02    -0.06   0.00   0.08
  33   1    -0.00  -0.00   0.00    -0.22  -0.00   0.24    -0.59   0.00   0.64
  34   1    -0.01   0.00  -0.00    -0.03   0.01  -0.02     0.17  -0.03   0.04
  35   1    -0.20   0.07  -0.12    -0.69   0.25  -0.43     0.23  -0.08   0.14
  36   1     0.06  -0.01  -0.04     0.12  -0.02  -0.06    -0.11   0.02   0.07
  37   1    -0.00  -0.00  -0.00    -0.00  -0.02  -0.02     0.01   0.03   0.03
  38   1     0.02  -0.01   0.01    -0.08   0.03  -0.05     0.03  -0.01   0.02
  39   1     0.02   0.07   0.08     0.00  -0.00   0.00     0.02   0.07   0.08
  40   1    -0.02  -0.15   0.05     0.01   0.04  -0.01    -0.00  -0.03   0.00
  41   1     0.07   0.21   0.23    -0.01  -0.04  -0.04     0.01   0.03   0.03
  42   1    -0.09  -0.76   0.24     0.03   0.22  -0.07    -0.01  -0.05   0.01
  43   1    -0.04  -0.18   0.04     0.01   0.04  -0.01    -0.00  -0.01   0.00
  44   1     0.02   0.04   0.06    -0.00  -0.01  -0.01     0.00   0.01   0.01
  45   1    -0.02  -0.10   0.04     0.00   0.02  -0.01    -0.00  -0.00   0.00
  46   1    -0.06   0.01   0.07     0.01  -0.00  -0.01    -0.00   0.00   0.00
  47   1    -0.01  -0.04   0.01     0.00   0.01  -0.00     0.00   0.00  -0.00
  48   1    -0.08   0.02   0.09     0.01  -0.00  -0.01    -0.01   0.00   0.01
  49   1    -0.01  -0.05   0.02     0.00   0.01  -0.00    -0.00  -0.00   0.00
  50   1     0.01   0.01   0.02    -0.00  -0.00  -0.00     0.00   0.00   0.00
  51   1     0.01   0.02  -0.01    -0.00  -0.01   0.00     0.00   0.00  -0.00
  52   1    -0.01   0.00  -0.01     0.00  -0.00   0.00    -0.00   0.00  -0.00
  53   1    -0.00  -0.01  -0.01     0.00   0.00   0.00    -0.00  -0.00  -0.00
                    148                    149                    150
                        a                      a                      a 
 Frequencies --  3030.2720              3031.5933              3033.0097
 Red. masses --     1.9126                 1.9065                 1.8188
 Frc consts  --     0.0000                 0.0000                 0.0000
 IR Inten    --    51.9124                55.6315                68.5127
 Raman Activ --     0.0000                 0.0000                 0.0000
 Depolar     --     0.0000                 0.0000                 0.0000
 Atom AN      X      Y      Z        X      Y      Z        X      Y      Z
   1   6    -0.04   0.02  -0.00    -0.21   0.17  -0.02    -0.08   0.05   0.01
   2   6    -0.00   0.00   0.00    -0.01   0.02   0.01    -0.00   0.01   0.00
   3   6     0.00   0.00   0.00     0.00   0.01   0.00     0.00   0.00   0.00
   4   6     0.00   0.00   0.00     0.00   0.01   0.00     0.00   0.00   0.00
   5   6     0.00   0.00   0.00     0.00   0.00  -0.00     0.00   0.00   0.00
   6   6     0.00   0.00   0.00     0.00   0.00   0.00     0.00   0.00   0.00
   7   6     0.00   0.00   0.00     0.00   0.00  -0.00     0.00   0.00  -0.00
   8   6     0.00  -0.00   0.00     0.00  -0.00  -0.00     0.00  -0.00  -0.00
   9   6     0.00  -0.00   0.00     0.00  -0.00   0.00     0.00  -0.00  -0.00
  10   6     0.00  -0.00   0.00     0.00  -0.00   0.00     0.00  -0.00   0.00
  11   6    -0.00  -0.00   0.00    -0.00  -0.00   0.00    -0.00  -0.00   0.00
  12   6    -0.00  -0.00   0.00    -0.00  -0.00   0.00    -0.00  -0.00  -0.00
  13   6    -0.00  -0.00   0.00    -0.00  -0.00   0.00    -0.00  -0.00  -0.00
  14   6    -0.00  -0.01   0.00    -0.00   0.00   0.00     0.00  -0.00  -0.01
  15   6    -0.01  -0.01   0.01    -0.00   0.00   0.00     0.00  -0.00  -0.00
  16   6    -0.01  -0.03   0.02     0.01   0.01   0.00    -0.01  -0.02  -0.02
  17   6     0.04  -0.24   0.14     0.06   0.07   0.02    -0.20  -0.07  -0.14
  18   1     0.14  -0.07   0.04     0.69  -0.34   0.18     0.24  -0.12   0.06
  19   1    -0.01  -0.00   0.00    -0.08  -0.22   0.14    -0.02  -0.03   0.02
  20   1     0.01  -0.00  -0.03     0.12  -0.04  -0.27     0.05  -0.02  -0.10
  21   1    -0.00  -0.01   0.01    -0.01  -0.05   0.03    -0.00  -0.02   0.01
  22   1     0.01  -0.00  -0.01     0.04  -0.01  -0.06     0.01  -0.00  -0.02
  23   1    -0.00  -0.00  -0.00    -0.01  -0.01  -0.01    -0.00  -0.00  -0.01
  24   1    -0.00  -0.00   0.00    -0.00  -0.02   0.01    -0.00  -0.01   0.00
  25   1    -0.00  -0.00  -0.00    -0.01  -0.02  -0.02    -0.00  -0.01  -0.01
  26   1     0.00   0.00  -0.00    -0.00  -0.00   0.00    -0.00  -0.00   0.00
  27   1     0.00   0.00  -0.00    -0.00  -0.01   0.00    -0.00  -0.00   0.00
  28   1    -0.00  -0.00  -0.00    -0.00  -0.00  -0.00    -0.00  -0.00  -0.00
  29   1     0.00   0.00  -0.00    -0.00  -0.00   0.00    -0.00  -0.00   0.00
  30   1    -0.00  -0.00  -0.00    -0.00  -0.00  -0.00    -0.00  -0.00  -0.00
  31   1    -0.00  -0.00  -0.00    -0.00  -0.00  -0.00    -0.00  -0.00  -0.00
  32   1    -0.00   0.00   0.00    -0.00   0.00   0.00    -0.00   0.00   0.00
  33   1     0.00  -0.00  -0.00    -0.00  -0.00   0.00    -0.00  -0.00   0.00
  34   1    -0.00   0.00  -0.00    -0.00   0.00  -0.00    -0.00   0.00  -0.00
  35   1    -0.01   0.00  -0.00    -0.00   0.00  -0.00    -0.00   0.00  -0.00
  36   1     0.00  -0.00  -0.00    -0.00   0.00   0.00    -0.00   0.00   0.00
  37   1     0.00   0.00   0.00     0.00   0.00   0.00     0.00   0.00   0.00
  38   1    -0.00   0.00  -0.00    -0.00   0.00  -0.00    -0.00   0.00  -0.00
  39   1    -0.00  -0.00  -0.00     0.00   0.00   0.00     0.00   0.00   0.00
  40   1     0.00   0.00  -0.00     0.00   0.00  -0.00     0.00   0.00  -0.00
  41   1    -0.00  -0.00  -0.00    -0.00  -0.00  -0.00     0.00   0.00   0.00
  42   1     0.00   0.01  -0.00     0.00   0.00  -0.00     0.00   0.00  -0.00
  43   1     0.00   0.02  -0.00     0.00   0.00  -0.00     0.00   0.00  -0.00
  44   1    -0.00  -0.00  -0.00    -0.00  -0.00  -0.00     0.00   0.00   0.00
  45   1     0.01   0.02  -0.01    -0.00  -0.01   0.00     0.00   0.01  -0.01
  46   1     0.00  -0.00  -0.01     0.01  -0.00  -0.01    -0.02   0.00   0.03
  47   1     0.01   0.04  -0.02    -0.00  -0.00   0.00     0.00   0.01  -0.00
  48   1     0.01  -0.00  -0.02     0.00  -0.00  -0.00    -0.01   0.00   0.01
  49   1     0.03   0.11  -0.04    -0.01  -0.02   0.01     0.00   0.01  -0.01
  50   1    -0.01  -0.01  -0.01    -0.01  -0.01  -0.02     0.03   0.04   0.06
  51   1     0.21   0.73  -0.29    -0.06  -0.24   0.10     0.06   0.32  -0.16
  52   1    -0.37   0.15  -0.21    -0.13   0.08  -0.08     0.58  -0.31   0.35
  53   1     0.01  -0.04   0.02    -0.02  -0.07  -0.09     0.08   0.24   0.28
                    151                    152                    153
                        a                      a                      a 
 Frequencies --  3035.9826              3042.5114              3043.9959
 Red. masses --     1.8786                 1.3428                 1.4342
 Frc consts  --     0.0000                 0.0000                 0.0000
 IR Inten    --    48.0291                33.0216                35.3925
 Raman Activ --     0.0000                 0.0000                 0.0000
 Depolar     --     0.0000                 0.0000                 0.0000
 Atom AN      X      Y      Z        X      Y      Z        X      Y      Z
   1   6    -0.12  -0.15   0.20     0.01   0.07   0.16     0.00   0.00   0.00
   2   6    -0.02  -0.02   0.03    -0.01   0.01   0.02     0.00   0.00  -0.00
   3   6    -0.00  -0.01   0.01     0.00   0.00   0.00     0.00   0.00   0.00
   4   6     0.00  -0.00   0.01     0.00   0.01   0.01    -0.00   0.00  -0.00
   5   6    -0.00  -0.00   0.00     0.00   0.00   0.00    -0.00  -0.00  -0.00
   6   6     0.00  -0.00   0.00     0.00   0.00   0.00    -0.00  -0.00  -0.00
   7   6    -0.00   0.00   0.00    -0.00   0.00   0.00    -0.00  -0.00  -0.00
   8   6    -0.00  -0.00   0.00    -0.00  -0.00   0.00     0.00   0.00  -0.00
   9   6     0.00  -0.00   0.00     0.00  -0.00   0.00    -0.00   0.00  -0.00
  10   6     0.00   0.00   0.00     0.00   0.00   0.00    -0.00   0.00  -0.00
  11   6     0.00   0.00   0.00     0.00   0.00   0.00    -0.00  -0.00  -0.00
  12   6     0.00  -0.00   0.00     0.00   0.00   0.00    -0.00  -0.00  -0.00
  13   6     0.00   0.00  -0.00     0.00  -0.00   0.00     0.00  -0.00  -0.00
  14   6     0.00  -0.00  -0.00    -0.00   0.00   0.00     0.01  -0.00  -0.01
  15   6    -0.00   0.00   0.00    -0.00  -0.00   0.00     0.00  -0.00  -0.01
  16   6     0.00   0.00   0.00    -0.00   0.00  -0.00    -0.00  -0.01  -0.02
  17   6     0.01   0.01   0.00    -0.00  -0.01   0.01     0.03  -0.13  -0.14
  18   1     0.08  -0.07   0.06    -0.37   0.19  -0.07    -0.02   0.01  -0.01
  19   1     0.14   0.73  -0.41    -0.06  -0.29   0.19    -0.00  -0.02   0.01
  20   1     0.20  -0.11  -0.34     0.41  -0.16  -0.68     0.01  -0.00  -0.01
  21   1     0.02   0.07  -0.05    -0.00   0.00   0.00    -0.00  -0.00   0.00
  22   1     0.03  -0.01  -0.04     0.03  -0.01  -0.04    -0.00   0.00   0.00
  23   1    -0.00  -0.00  -0.00    -0.01  -0.01  -0.01    -0.00  -0.00  -0.00
  24   1     0.01   0.03  -0.02    -0.00  -0.01   0.00    -0.00  -0.00   0.00
  25   1    -0.01  -0.02  -0.02    -0.02  -0.03  -0.03     0.00   0.00   0.00
  26   1     0.00   0.02  -0.01     0.00   0.00  -0.00    -0.00  -0.00   0.00
  27   1     0.00   0.01  -0.01    -0.00  -0.00   0.00     0.00   0.00  -0.00
  28   1    -0.00  -0.00  -0.00    -0.00  -0.00  -0.00     0.00   0.00   0.00
  29   1     0.00   0.00  -0.00     0.00   0.00  -0.00     0.00   0.00  -0.00
  30   1    -0.00  -0.00  -0.00    -0.00  -0.00  -0.01     0.00   0.00   0.00
  31   1    -0.00  -0.00  -0.00    -0.00  -0.00  -0.00     0.00   0.00   0.00
  32   1     0.00  -0.00  -0.00     0.00  -0.00  -0.00    -0.00  -0.00  -0.00
  33   1     0.01  -0.00  -0.01     0.00   0.00  -0.00    -0.00   0.00   0.00
  34   1    -0.00   0.00  -0.00    -0.00   0.00  -0.00     0.00  -0.00   0.00
  35   1    -0.00   0.00  -0.00    -0.00   0.00  -0.00     0.00  -0.00   0.00
  36   1     0.00  -0.00  -0.00     0.00  -0.00  -0.00     0.00   0.00  -0.00
  37   1    -0.00  -0.00  -0.00    -0.00  -0.00  -0.00    -0.00   0.00   0.00
  38   1    -0.00   0.00  -0.00    -0.00   0.00  -0.00     0.00  -0.00   0.00
  39   1    -0.00  -0.00  -0.00    -0.00  -0.00  -0.00     0.00   0.00   0.00
  40   1     0.00   0.00  -0.00     0.00   0.00  -0.00    -0.00  -0.00   0.00
  41   1    -0.00  -0.00  -0.00    -0.00  -0.00  -0.00     0.00   0.00   0.00
  42   1     0.00   0.00  -0.00     0.00   0.00   0.00    -0.00   0.00  -0.00
  43   1    -0.00  -0.00   0.00     0.00   0.00  -0.00    -0.00  -0.00   0.00
  44   1     0.00   0.00   0.00    -0.00  -0.00  -0.00     0.00   0.00   0.01
  45   1     0.00   0.01  -0.00    -0.00  -0.01   0.01     0.00   0.01  -0.00
  46   1    -0.00   0.00   0.01     0.01  -0.00  -0.01    -0.03   0.01   0.04
  47   1    -0.00  -0.01   0.00     0.00   0.01  -0.00     0.00  -0.00  -0.00
  48   1     0.00  -0.00  -0.00     0.00  -0.00  -0.00    -0.01   0.00   0.02
  49   1     0.00   0.01  -0.00    -0.00  -0.01   0.00     0.00   0.01  -0.01
  50   1    -0.00  -0.01  -0.01     0.00   0.00   0.00     0.02   0.03   0.04
  51   1    -0.01  -0.05   0.02     0.01   0.04  -0.02    -0.05  -0.20   0.06
  52   1    -0.03   0.02  -0.02    -0.00  -0.00   0.00    -0.29   0.12  -0.20
  53   1    -0.00  -0.00  -0.01    -0.01  -0.01  -0.01     0.24   0.53   0.66
