      -----------------------------------------------------------      
     |                   =====================                   |     
     |                           x T B                           |     
     |                   =====================                   |     
     |                         S. Grimme                         |     
     |          Mulliken Center for Theoretical Chemistry        |     
     |                    University of Bonn                     |     
      -----------------------------------------------------------      

   * xtb version 6.6.1 (8d0f1dd) compiled by 'stahn@M-Bot' on 2023-08-01

   xtb is free software: you can redistribute it and/or modify it under
   the terms of the GNU Lesser General Public License as published by
   the Free Software Foundation, either version 3 of the License, or
   (at your option) any later version.
   
   xtb is distributed in the hope that it will be useful,
   but WITHOUT ANY WARRANTY; without even the implied warranty of
   MERCHANTABILITY or FITNESS FOR A PARTICULAR PURPOSE.  See the
   GNU Lesser General Public License for more details.
   
   Cite this work as:
   * C. Bannwarth, E. Caldeweyher, S. Ehlert, A. Hansen, P. Pracht,
     J. Seibert, S. Spicher, S. Grimme, WIREs Comput. Mol. Sci., 2020, 11,
     e01493. DOI: 10.1002/wcms.1493
   
   for GFN2-xTB:
   * C. Bannwarth, S. Ehlert and S. Grimme., J. Chem. Theory Comput., 2019,
     15, 1652-1671. DOI: 10.1021/acs.jctc.8b01176
   for GFN1-xTB:
   * S. Grimme, C. Bannwarth, P. Shushkov, J. Chem. Theory Comput., 2017,
     13, 1989-2009. DOI: 10.1021/acs.jctc.7b00118
   for GFN0-xTB:
   * P. Pracht, E. Caldeweyher, S. Ehlert, S. Grimme, ChemRxiv, 2019, preprint.
     DOI: 10.26434/chemrxiv.8326202.v1
   for GFN-FF:
   * S. Spicher and S. Grimme, Angew. Chem. Int. Ed., 2020, 59, 15665-15673.
     DOI: 10.1002/anie.202004239
   
   for ALPB and GBSA implicit solvation:
   * S. Ehlert, M. Stahn, S. Spicher, S. Grimme, J. Chem. Theory Comput.,
     2021, 17, 4250-4261. DOI: 10.1021/acs.jctc.1c00471
   
   for DFT-D4:
   * E. Caldeweyher, C. Bannwarth and S. Grimme, J. Chem. Phys., 2017,
     147, 034112. DOI: 10.1063/1.4993215
   * E. Caldeweyher, S. Ehlert, A. Hansen, H. Neugebauer, S. Spicher,
     C. Bannwarth and S. Grimme, J. Chem. Phys., 2019, 150, 154122.
     DOI: 10.1063/1.5090222
   * E. Caldeweyher, J.-M. Mewes, S. Ehlert and S. Grimme, Phys. Chem. Chem. Phys.
     2020, 22, 8499-8512. DOI: 10.1039/D0CP00502A
   
   for sTDA-xTB:
   * S. Grimme and C. Bannwarth, J. Chem. Phys., 2016, 145, 054103.
     DOI: 10.1063/1.4959605
   
   in the mass-spec context:
   * V. Asgeirsson, C. Bauer and S. Grimme, Chem. Sci., 2017, 8, 4879.
     DOI: 10.1039/c7sc00601b
   * J. Koopman and S. Grimme, ACS Omega 2019, 4, 12, 15120-15133.
     DOI: 10.1021/acsomega.9b02011
   
   for metadynamics refer to:
   * S. Grimme, J. Chem. Theory Comput., 2019, 155, 2847-2862
     DOI: 10.1021/acs.jctc.9b00143
   
   for SPH calculations refer to:
   * S. Spicher and S. Grimme, J. Chem. Theory Comput., 2021, 17, 1701-1714
     DOI: 10.1021/acs.jctc.0c01306
   
   with help from (in alphabetical order)
   P. Atkinson, C. Bannwarth, F. Bohle, G. Brandenburg, E. Caldeweyher
   M. Checinski, S. Dohm, S. Ehlert, S. Ehrlich, I. Gerasimov, C. Hölzer
   A. Katbashev, J. Koopman, C. Lavigne, S. Lehtola, F. März, M. Müller,
   F. Musil, H. Neugebauer, J. Pisarek, C. Plett, P. Pracht, F. Pultar,
   J. Seibert, P. Shushkov, S. Spicher, M. Stahn, M. Steiner, T. Strunk,
   J. Stückrath, T. Rose, and J. Unsleber
   
 * started run on 2024/04/23 at 12:10:52.398     

           -------------------------------------------------
          |                Calculation Setup                |
           -------------------------------------------------

          program call               : xtb folded.xyz --gfn 2 --ohess -P 4
          coordinate file            : folded.xyz
          omp threads                :                     4

   ID    Z sym.   atoms
    1    6 C      1-17
    2    1 H      18-53

           -------------------------------------------------
          |                 G F N 2 - x T B                 |
           -------------------------------------------------

        Reference                      10.1021/acs.jctc.8b01176
      * Hamiltonian:
        H0-scaling (s, p, d)           1.850000    2.230000    2.230000
        zeta-weighting                 0.500000
      * Dispersion:
        s8                             2.700000
        a1                             0.520000
        a2                             5.000000
        s9                             5.000000
      * Repulsion:
        kExp                           1.500000    1.000000
        rExp                           1.000000
      * Coulomb:
        alpha                          2.000000
        third order                    shell-resolved
        anisotropic                    true
        a3                             3.000000
        a5                             4.000000
        cn-shift                       1.200000
        cn-exp                         4.000000
        max-rad                        5.000000


          ...................................................
          :                      SETUP                      :
          :.................................................:
          :  # basis functions                 104          :
          :  # atomic orbitals                 104          :
          :  # shells                           70          :
          :  # electrons                       104          :
          :  max. iterations                   250          :
          :  Hamiltonian                  GFN2-xTB          :
          :  restarted?                      false          :
          :  GBSA solvation                  false          :
          :  PC potential                    false          :
          :  electronic temp.          300.0000000     K    :
          :  accuracy                    1.0000000          :
          :  -> integral cutoff          0.2500000E+02      :
          :  -> integral neglect         0.1000000E-07      :
          :  -> SCF convergence          0.1000000E-05 Eh   :
          :  -> wf. convergence          0.1000000E-03 e    :
          :  Broyden damping             0.4000000          :
          ...................................................

 iter      E             dE          RMSdq      gap      omega  full diag
   1    -55.4519667 -0.554520E+02  0.246E+00   12.53       0.0  T
   2    -55.5857610 -0.133794E+00  0.132E+00   12.26       1.0  T
   3    -55.5874853 -0.172424E-02  0.696E-01   12.24       1.0  T
   4    -55.5878903 -0.405002E-03  0.832E-02   12.25       1.0  T
   5    -55.5879001 -0.984940E-05  0.395E-02   12.25       1.0  T
   6    -55.5879046 -0.446327E-05  0.439E-03   12.25       3.1  T
   7    -55.5879047 -0.156729E-06  0.127E-03   12.25      10.8  T
   8    -55.5879048 -0.178098E-07  0.322E-04   12.25      42.7  T
   9    -55.5879048 -0.285709E-09  0.122E-04   12.25     113.0  T

   *** convergence criteria satisfied after 9 iterations ***

         #    Occupation            Energy/Eh            Energy/eV
      -------------------------------------------------------------
         1        2.0000           -0.6228154             -16.9477
       ...           ...                  ...                  ...
        46        2.0000           -0.4196126             -11.4182
        47        2.0000           -0.4156145             -11.3094
        48        2.0000           -0.4138076             -11.2603
        49        2.0000           -0.4133676             -11.2483
        50        2.0000           -0.4110748             -11.1859
        51        2.0000           -0.4086092             -11.1188
        52        2.0000           -0.4033171             -10.9748 (HOMO)
        53                          0.0468165               1.2739 (LUMO)
        54                          0.0527320               1.4349
        55                          0.0684580               1.8628
        56                          0.0718757               1.9558
        57                          0.0839202               2.2836
       ...                                ...                  ...
       104                          0.3350532               9.1173
      -------------------------------------------------------------
                  HL-Gap            0.4501336 Eh           12.2488 eV
             Fermi-level           -0.1782503 Eh           -4.8504 eV

 SCC (total)                   0 d,  0 h,  0 min,  0.049 sec
 SCC setup                      ...        0 min,  0.000 sec (  0.817%)
 Dispersion                     ...        0 min,  0.001 sec (  1.115%)
 classical contributions        ...        0 min,  0.000 sec (  0.111%)
 integral evaluation            ...        0 min,  0.002 sec (  4.978%)
 iterations                     ...        0 min,  0.037 sec ( 75.490%)
 molecular gradient             ...        0 min,  0.008 sec ( 16.617%)
 printout                       ...        0 min,  0.000 sec (  0.803%)

         :::::::::::::::::::::::::::::::::::::::::::::::::::::
         ::                     SUMMARY                     ::
         :::::::::::::::::::::::::::::::::::::::::::::::::::::
         :: total energy             -54.793828303115 Eh    ::
         :: gradient norm              0.036924512626 Eh/a0 ::
         :: HOMO-LUMO gap             12.248759514198 eV    ::
         ::.................................................::
         :: SCC energy               -55.587904756554 Eh    ::
         :: -> isotropic ES            0.008165923442 Eh    ::
         :: -> anisotropic ES          0.018174110363 Eh    ::
         :: -> anisotropic XC          0.032063422781 Eh    ::
         :: -> dispersion             -0.042175766610 Eh    ::
         :: repulsion energy           0.792973071811 Eh    ::
         :: add. restraining           0.000000000000 Eh    ::
         :: total charge               0.000000000000 e     ::
         :::::::::::::::::::::::::::::::::::::::::::::::::::::

      ----------------------------------------------------------- 
     |                   =====================                   |
     |                        A N C O P T                        |
     |                   =====================                   |
     |               Approximate Normal Coordinate               |
     |                Rational Function Optimizer                |
      ----------------------------------------------------------- 

          ...................................................
          :                      SETUP                      :
          :.................................................:
          :   optimization level            normal          :
          :   max. optcycles                   200          :
          :   ANC micro-cycles                  20          :
          :   degrees of freedom               153          :
          :.................................................:
          :   RF solver                   davidson          :
          :   write xtbopt.log                true          :
          :   linear?                        false          :
          :   energy convergence         0.5000000E-05 Eh   :
          :   grad. convergence          0.1000000E-02 Eh/α :
          :   maxmium RF displ.          2.0000000          :
          :   Hlow (freq-cutoff)         0.2000000E-01      :
          :   Hmax (freq-cutoff)         5.0000000          :
          :   S6 in model hess.         70.0000000          :
          ...................................................

generating ANC from model Hessian ...
Using Lindh-Hessian (1995)
 Shifting diagonal of input Hessian by   1.966002264478861E-002
 Lowest  eigenvalues of input Hessian
    0.000000    0.000000    0.000000    0.000000    0.000000    0.000000
    0.020000    0.020356    0.021129    0.021404    0.021744    0.022118
    0.022414    0.022893    0.023593    0.024980    0.025499    0.025938
 Highest eigenvalues
    1.260052    1.273779    1.279777    1.294372    1.317245    1.319310
 

........................................................................
.............................. CYCLE    1 ..............................
........................................................................

 iter      E             dE          RMSdq      gap      omega  full diag
   1    -55.5879048 -0.555879E+02  0.264E-05   12.25       0.0  T
   2    -55.5879048 -0.300560E-11  0.151E-05   12.25     907.3  T
   3    -55.5879048 -0.262901E-12  0.511E-06   12.25    2690.1  T
     SCC iter.                  ...        0 min,  0.005 sec
     gradient                   ...        0 min,  0.008 sec
 * total energy  :   -54.7938283 Eh     change       -0.6072298E-10 Eh
   gradient norm :     0.0369239 Eh/α   predicted     0.0000000E+00 (-100.00%)
   displ. norm   :     0.2205966 α      lambda       -0.4899343E-02
   maximum displ.:     0.1076086 α      in ANC's #70, #67, #51, ...

........................................................................
.............................. CYCLE    2 ..............................
........................................................................

 iter      E             dE          RMSdq      gap      omega  full diag
   1    -55.6042821 -0.556043E+02  0.142E-01   12.40       0.0  T
   2    -55.6042891 -0.691393E-05  0.818E-02   12.40       1.0  T
   3    -55.6042902 -0.114186E-05  0.383E-03   12.40       3.6  T
   4    -55.6042903 -0.105915E-06  0.136E-03   12.40      10.1  T
   5    -55.6042903 -0.434414E-08  0.701E-04   12.40      19.6  T
   6    -55.6042903 -0.794920E-09  0.791E-05   12.40     173.7  T
     SCC iter.                  ...        0 min,  0.008 sec
     gradient                   ...        0 min,  0.011 sec
 * total energy  :   -54.7970917 Eh     change       -0.3263367E-02 Eh
   gradient norm :     0.0160870 Eh/α   predicted    -0.2568895E-02 ( -21.28%)
   displ. norm   :     0.1256128 α      lambda       -0.9857193E-03
   maximum displ.:     0.0494021 α      in ANC's #70, #22, #67, ...

........................................................................
.............................. CYCLE    3 ..............................
........................................................................

 iter      E             dE          RMSdq      gap      omega  full diag
   1    -55.6151982 -0.556152E+02  0.714E-02   12.49       0.0  T
   2    -55.6152024 -0.410706E-05  0.406E-02   12.49       1.0  T
   3    -55.6152026 -0.244534E-06  0.346E-03   12.49       4.0  T
   4    -55.6152026 -0.479259E-07  0.721E-04   12.49      19.1  T
   5    -55.6152026 -0.280682E-08  0.411E-04   12.49      33.4  T
     SCC iter.                  ...        0 min,  0.009 sec
     gradient                   ...        0 min,  0.008 sec
 * total energy  :   -54.7976278 Eh     change       -0.5361499E-03 Eh
   gradient norm :     0.0027461 Eh/α   predicted    -0.5006498E-03 (  -6.62%)
   displ. norm   :     0.0418371 α      lambda       -0.4857248E-04
   maximum displ.:     0.0157876 α      in ANC's #22, #6, #18, ...

........................................................................
.............................. CYCLE    4 ..............................
........................................................................

 iter      E             dE          RMSdq      gap      omega  full diag
   1    -55.6166828 -0.556167E+02  0.807E-03   12.51       0.0  T
   2    -55.6166830 -0.133997E-06  0.461E-03   12.51       3.0  T
   3    -55.6166830 -0.495508E-08  0.760E-04   12.51      18.1  T
   4    -55.6166830 -0.176882E-08  0.160E-04   12.51      86.1  T
     SCC iter.                  ...        0 min,  0.007 sec
     gradient                   ...        0 min,  0.008 sec
 * total energy  :   -54.7976692 Eh     change       -0.4139794E-04 Eh
   gradient norm :     0.0011626 Eh/α   predicted    -0.2606309E-04 ( -37.04%)
   displ. norm   :     0.1523736 α      lambda       -0.8234564E-04
   maximum displ.:     0.0567544 α      in ANC's #6, #12, #22, ...

........................................................................
.............................. CYCLE    5 ..............................
........................................................................

 iter      E             dE          RMSdq      gap      omega  full diag
   1    -55.6181617 -0.556182E+02  0.197E-02   12.54       0.0  T
   2    -55.6181621 -0.420375E-06  0.116E-02   12.54       1.2  T
   3    -55.6181622 -0.420390E-07  0.131E-03   12.54      10.5  T
   4    -55.6181622 -0.175403E-07  0.482E-04   12.54      28.5  T
   5    -55.6181622 -0.155735E-08  0.158E-04   12.54      87.0  T
     SCC iter.                  ...        0 min,  0.008 sec
     gradient                   ...        0 min,  0.008 sec
 * total energy  :   -54.7977309 Eh     change       -0.6163614E-04 Eh
   gradient norm :     0.0040276 Eh/α   predicted    -0.4172158E-04 ( -32.31%)
   displ. norm   :     0.0360152 α      lambda       -0.2539264E-04
   maximum displ.:     0.0168296 α      in ANC's #6, #5, #12, ...

........................................................................
.............................. CYCLE    6 ..............................
........................................................................

 iter      E             dE          RMSdq      gap      omega  full diag
   1    -55.6172694 -0.556173E+02  0.468E-03   12.53       0.0  T
   2    -55.6172695 -0.552268E-07  0.266E-03   12.53       5.2  T
   3    -55.6172695 -0.132609E-08  0.497E-04   12.53      27.6  T
   4    -55.6172695 -0.418559E-09  0.784E-05   12.53     175.2  T
     SCC iter.                  ...        0 min,  0.007 sec
     gradient                   ...        0 min,  0.008 sec
 * total energy  :   -54.7977530 Eh     change       -0.2211967E-04 Eh
   gradient norm :     0.0025246 Eh/α   predicted    -0.1271847E-04 ( -42.50%)
   displ. norm   :     0.1312783 α      lambda       -0.6666975E-04
   maximum displ.:     0.0650348 α      in ANC's #6, #5, #12, ...

........................................................................
.............................. CYCLE    7 ..............................
........................................................................

 iter      E             dE          RMSdq      gap      omega  full diag
   1    -55.6150301 -0.556150E+02  0.148E-02   12.51       0.0  T
   2    -55.6150305 -0.357241E-06  0.856E-03   12.51       1.6  T
   3    -55.6150305 -0.122531E-07  0.117E-03   12.51      11.8  T
   4    -55.6150305 -0.399599E-08  0.246E-04   12.51      55.8  T
   5    -55.6150305 -0.497081E-09  0.116E-04   12.51     118.7  T
     SCC iter.                  ...        0 min,  0.007 sec
     gradient                   ...        0 min,  0.008 sec
 * total energy  :   -54.7977917 Eh     change       -0.3870473E-04 Eh
   gradient norm :     0.0016428 Eh/α   predicted    -0.3395664E-04 ( -12.27%)
   displ. norm   :     0.0728506 α      lambda       -0.1147792E-04
   maximum displ.:     0.0399173 α      in ANC's #6, #5, #3, ...

........................................................................
.............................. CYCLE    8 ..............................
........................................................................

 iter      E             dE          RMSdq      gap      omega  full diag
   1    -55.6149004 -0.556149E+02  0.720E-03   12.50       0.0  T
   2    -55.6149004 -0.127423E-07  0.427E-03   12.50       3.2  T
   3    -55.6149004 -0.263430E-08  0.247E-04   12.50      55.6  T
   4    -55.6149004 -0.768331E-09  0.118E-04   12.50     115.9  T
     SCC iter.                  ...        0 min,  0.006 sec
     gradient                   ...        0 min,  0.008 sec
 * total energy  :   -54.7978048 Eh     change       -0.1311903E-04 Eh
   gradient norm :     0.0018254 Eh/α   predicted    -0.5752996E-05 ( -56.15%)
   displ. norm   :     0.1084088 α      lambda       -0.1971849E-04
   maximum displ.:     0.0620782 α      in ANC's #6, #5, #19, ...

........................................................................
.............................. CYCLE    9 ..............................
........................................................................

 iter      E             dE          RMSdq      gap      omega  full diag
   1    -55.6157475 -0.556157E+02  0.113E-02   12.50       0.0  T
   2    -55.6157476 -0.966235E-07  0.664E-03   12.50       2.1  T
   3    -55.6157476 -0.635776E-08  0.532E-04   12.50      25.8  T
   4    -55.6157476 -0.210618E-08  0.179E-04   12.50      76.9  T
     SCC iter.                  ...        0 min,  0.006 sec
     gradient                   ...        0 min,  0.008 sec
 * total energy  :   -54.7978241 Eh     change       -0.1927607E-04 Eh
   gradient norm :     0.0005785 Eh/α   predicted    -0.9912799E-05 ( -48.57%)
   displ. norm   :     0.0680528 α      lambda       -0.7606777E-05
   maximum displ.:     0.0389033 α      in ANC's #6, #5, #19, ...

........................................................................
.............................. CYCLE   10 ..............................
........................................................................

 iter      E             dE          RMSdq      gap      omega  full diag
   1    -55.6159549 -0.556160E+02  0.680E-03   12.50       0.0  T
   2    -55.6159549 -0.153214E-07  0.402E-03   12.50       3.4  T
   3    -55.6159549 -0.232444E-08  0.256E-04   12.50      53.6  T
   4    -55.6159549 -0.833502E-09  0.113E-04   12.50     122.1  T
     SCC iter.                  ...        0 min,  0.006 sec
     gradient                   ...        0 min,  0.008 sec
 * total energy  :   -54.7978325 Eh     change       -0.8407035E-05 Eh
   gradient norm :     0.0006393 Eh/α   predicted    -0.3812592E-05 ( -54.65%)
   displ. norm   :     0.0745127 α      lambda       -0.7268332E-05
   maximum displ.:     0.0413303 α      in ANC's #5, #6, #4, ...

........................................................................
.............................. CYCLE   11 ..............................
........................................................................

 iter      E             dE          RMSdq      gap      omega  full diag
   1    -55.6161383 -0.556161E+02  0.714E-03   12.52       0.0  T
   2    -55.6161383 -0.125377E-07  0.422E-03   12.52       3.3  T
   3    -55.6161383 -0.281423E-08  0.247E-04   12.52      55.5  T
   4    -55.6161383 -0.718721E-09  0.120E-04   12.52     114.4  T
     SCC iter.                  ...        0 min,  0.006 sec
     gradient                   ...        0 min,  0.008 sec
 * total energy  :   -54.7978402 Eh     change       -0.7692488E-05 Eh
   gradient norm :     0.0005872 Eh/α   predicted    -0.3646136E-05 ( -52.60%)
   displ. norm   :     0.0638743 α      lambda       -0.5324862E-05
   maximum displ.:     0.0370745 α      in ANC's #5, #6, #4, ...

........................................................................
.............................. CYCLE   12 ..............................
........................................................................

 iter      E             dE          RMSdq      gap      omega  full diag
   1    -55.6161358 -0.556161E+02  0.565E-03   12.53       0.0  T
   2    -55.6161358 -0.842857E-08  0.335E-03   12.53       4.1  T
   3    -55.6161359 -0.160178E-08  0.185E-04   12.53      74.3  T
   4    -55.6161359 -0.412811E-09  0.914E-05   12.53     150.4  T
     SCC iter.                  ...        0 min,  0.006 sec
     gradient                   ...        0 min,  0.008 sec
 * total energy  :   -54.7978461 Eh     change       -0.5893191E-05 Eh
   gradient norm :     0.0004194 Eh/α   predicted    -0.2671059E-05 ( -54.68%)
   displ. norm   :     0.0727920 α      lambda       -0.5336247E-05
   maximum displ.:     0.0424714 α      in ANC's #5, #4, #6, ...

........................................................................
.............................. CYCLE   13 ..............................
........................................................................

 iter      E             dE          RMSdq      gap      omega  full diag
   1    -55.6160695 -0.556161E+02  0.583E-03   12.53       0.0  T
   2    -55.6160695 -0.979797E-08  0.346E-03   12.53       4.0  T
   3    -55.6160695 -0.170435E-08  0.206E-04   12.53      66.7  T
   4    -55.6160695 -0.488100E-09  0.958E-05   12.53     143.4  T
     SCC iter.                  ...        0 min,  0.006 sec
     gradient                   ...        0 min,  0.008 sec
 * total energy  :   -54.7978517 Eh     change       -0.5632593E-05 Eh
   gradient norm :     0.0003798 Eh/α   predicted    -0.2679420E-05 ( -52.43%)
   displ. norm   :     0.0546491 α      lambda       -0.3575579E-05
   maximum displ.:     0.0305799 α      in ANC's #5, #4, #6, ...

........................................................................
.............................. CYCLE   14 ..............................
........................................................................

 iter      E             dE          RMSdq      gap      omega  full diag
   1    -55.6159570 -0.556160E+02  0.455E-03   12.53       0.0  T
   2    -55.6159570 -0.698943E-08  0.270E-03   12.53       5.1  T
   3    -55.6159570 -0.121426E-08  0.183E-04   12.53      75.2  T
   4    -55.6159570 -0.373035E-09  0.797E-05   12.53     172.2  T
     SCC iter.                  ...        0 min,  0.006 sec
     gradient                   ...        0 min,  0.008 sec
 * total energy  :   -54.7978554 Eh     change       -0.3708612E-05 Eh
   gradient norm :     0.0003603 Eh/α   predicted    -0.1792621E-05 ( -51.66%)
   displ. norm   :     0.0373883 α      lambda       -0.2202170E-05
   maximum displ.:     0.0215530 α      in ANC's #4, #5, #1, ...

   *** GEOMETRY OPTIMIZATION CONVERGED AFTER 14 ITERATIONS ***

------------------------------------------------------------------------
 total energy gain   :        -0.0040271 Eh       -2.5270 kcal/mol
 total RMSD          :         0.1188130 a0        0.0629 Å
 total power (kW/mol):        -0.7552258 (step)  -37.1664 (real)
------------------------------------------------------------------------

 ANCopt (total)                0 d,  0 h,  0 min,  0.285 sec
 optimizer setup                ...        0 min,  0.001 sec (  0.351%)
 model hessian                  ...        0 min,  0.032 sec ( 11.371%)
 ANC generation                 ...        0 min,  0.002 sec (  0.788%)
 coordinate transformation      ...        0 min,  0.000 sec (  0.138%)
 single point calculation       ...        0 min,  0.243 sec ( 85.369%)
 optimization log               ...        0 min,  0.002 sec (  0.812%)
 hessian update                 ...        0 min,  0.000 sec (  0.099%)
 rational function              ...        0 min,  0.001 sec (  0.473%)

================
 final structure:
================
53
 xtb: 6.6.1 (8d0f1dd)
C            3.06012225026990       -2.49228907256067        0.40163287371921
C            2.23246819462301       -3.42616860691947       -0.47360203822682
C            0.90472977256024       -2.81341185337253       -0.92050885908402
C           -0.10222516608644       -2.65130928402805        0.21636332892762
C           -1.43631468422538       -2.10426650500993       -0.28609842757451
C           -2.43855459355403       -1.91453369248867        0.85066116200827
C           -3.79412854898405       -1.37179231271901        0.39060978763409
C           -3.74278550355462        0.02843649800339       -0.22458025842596
C           -3.38121184473924        1.11669970516677        0.78490557821352
C           -3.08412620616494        2.47220586338229        0.13963343384043
C           -1.87949930760772        2.48358135117603       -0.80585417449485
C           -0.57993552448542        2.01989493838653       -0.15120872044851
C            0.59104739427116        2.05979499422018       -1.13130724072624
C            1.86291045101453        1.41655623603578       -0.57595679576421
C            2.53613864154931        2.25320024277280        0.50987436371639
C            3.76539885611081        1.57411825471103        1.11584019070605
C            4.92483470240099        1.43396556535724        0.13618865853334
H            4.01172156633159       -2.95474671272637        0.65443646208690
H            3.26198095330781       -1.56092205960582       -0.12279168261899
H            2.54042950459855       -2.26264525050857        1.32850510179233
H            2.03529621474777       -4.35378950918164        0.06895268719954
H            2.81554281312759       -3.68169165178526       -1.36186743443624
H            0.46259209337165       -3.45545927145317       -1.68684181032326
H            1.09439175246407       -1.83930173806465       -1.37848388052189
H            0.29707048931062       -1.96975757491802        0.97033696916834
H           -0.26289139634869       -3.61925627462951        0.69769469660152
H           -1.25243153607338       -1.15117469674144       -0.78437929094436
H           -1.85563455749588       -2.78930111494662       -1.02721403126446
H           -2.60310529098718       -2.88014669783361        1.33622622509575
H           -2.00838665742099       -1.24916536473650        1.60176277151180
H           -4.20985512217871       -2.06115610233498       -0.34885400109882
H           -4.47369048259729       -1.35827803073198        1.24667576372705
H           -3.02416860353824        0.02680430628761       -1.04250178636563
H           -4.72089159218321        0.25835191154432       -0.65477698728237
H           -2.51547156117110        0.80846363157059        1.36964497196978
H           -4.21267607395301        1.23976275807789        1.48391363319238
H           -2.90878685737435        3.19936053319415        0.93686442907967
H           -3.96440594092643        2.80184868443100       -0.41825717739081
H           -2.08697724551902        1.85626371702966       -1.67525505549507
H           -1.74468352228873        3.50389100250603       -1.17475129751638
H           -0.36961418109602        2.65350550421588        0.71232710114071
H           -0.69324305377887        0.99497003415636        0.20405024757517
H            0.79969092212815        3.09380405823844       -1.41591720732923
H            0.29904429833544        1.52369175569208       -2.03890461565020
H            1.61642178019211        0.43287558657603       -0.16897022189913
H            2.56395271529281        1.27069045617093       -1.40019287272186
H            2.82782458604476        3.21950709519703        0.09101395868912
H            1.81961974291499        2.44255154519128        1.31147021262693
H            3.48408804094745        0.58585994460940        1.48700714214823
H            4.10102719828052        2.16391152740335        1.97252407279767
H            5.19901908141753        2.40502124534216       -0.27085144565759
H            5.79385238629965        1.01501179831559        0.63875762997880
H            4.66504865241990        0.77656963233473       -0.68952114041923
           -------------------------------------------------
          |                Final Singlepoint                |
           -------------------------------------------------

          ...................................................
          :                      SETUP                      :
          :.................................................:
          :  # basis functions                 104          :
          :  # atomic orbitals                 104          :
          :  # shells                           70          :
          :  # electrons                       104          :
          :  max. iterations                   250          :
          :  Hamiltonian                  GFN2-xTB          :
          :  restarted?                      false          :
          :  GBSA solvation                  false          :
          :  PC potential                    false          :
          :  electronic temp.          300.0000000     K    :
          :  accuracy                    1.0000000          :
          :  -> integral cutoff          0.2500000E+02      :
          :  -> integral neglect         0.1000000E-07      :
          :  -> SCF convergence          0.1000000E-05 Eh   :
          :  -> wf. convergence          0.1000000E-03 e    :
          :  Broyden damping             0.4000000          :
          ...................................................

 iter      E             dE          RMSdq      gap      omega  full diag
   1    -55.6159570 -0.556160E+02  0.176E-05   12.53       0.0  T
   2    -55.6159570 -0.802913E-12  0.998E-06   12.53    1376.1  T
   3    -55.6159570 -0.639488E-13  0.237E-06   12.53    5796.3  T

   *** convergence criteria satisfied after 3 iterations ***

         #    Occupation            Energy/Eh            Energy/eV
      -------------------------------------------------------------
         1        2.0000           -0.6237409             -16.9729
       ...           ...                  ...                  ...
        46        2.0000           -0.4191221             -11.4049
        47        2.0000           -0.4155655             -11.3081
        48        2.0000           -0.4144686             -11.2783
        49        2.0000           -0.4132107             -11.2440
        50        2.0000           -0.4109287             -11.1819
        51        2.0000           -0.4091446             -11.1334
        52        2.0000           -0.4051511             -11.0247 (HOMO)
        53                          0.0552104               1.5024 (LUMO)
        54                          0.0592839               1.6132
        55                          0.0752131               2.0467
        56                          0.0812979               2.2122
        57                          0.0935873               2.5466
       ...                                ...                  ...
       104                          0.3468043               9.4370
      -------------------------------------------------------------
                  HL-Gap            0.4603615 Eh           12.5271 eV
             Fermi-level           -0.1749703 Eh           -4.7612 eV

 SCC (total)                   0 d,  0 h,  0 min,  0.017 sec
 SCC setup                      ...        0 min,  0.000 sec (  2.357%)
 Dispersion                     ...        0 min,  0.000 sec (  1.222%)
 classical contributions        ...        0 min,  0.000 sec (  0.313%)
 integral evaluation            ...        0 min,  0.002 sec ( 11.031%)
 iterations                     ...        0 min,  0.004 sec ( 25.445%)
 molecular gradient             ...        0 min,  0.010 sec ( 56.823%)
 printout                       ...        0 min,  0.000 sec (  2.612%)

         :::::::::::::::::::::::::::::::::::::::::::::::::::::
         ::                     SUMMARY                     ::
         :::::::::::::::::::::::::::::::::::::::::::::::::::::
         :: total energy             -54.797855407584 Eh    ::
         :: gradient norm              0.000360532502 Eh/a0 ::
         :: HOMO-LUMO gap             12.527074672733 eV    ::
         ::.................................................::
         :: SCC energy               -55.615956993722 Eh    ::
         :: -> isotropic ES            0.008728611314 Eh    ::
         :: -> anisotropic ES          0.017378054517 Eh    ::
         :: -> anisotropic XC          0.032405809487 Eh    ::
         :: -> dispersion             -0.041803636057 Eh    ::
         :: repulsion energy           0.817031452403 Eh    ::
         :: add. restraining           0.000000000000 Eh    ::
         :: total charge               0.000000000000 e     ::
         :::::::::::::::::::::::::::::::::::::::::::::::::::::

           ------------------------------------------------- 
          |                Numerical Hessian                |
           ------------------------------------------------- 
step length          :   0.00500
SCC accuracy         :   0.30000
Hessian scale factor :   1.00000
frozen atoms in %    :   0.00000    0
RMS gradient         :   0.00036
estimated CPU  time      0.77 min
estimated wall time      0.20 min

writing file <hessian>.

 projected vibrational frequencies (cm⁻¹)
eigval :       -0.00    -0.00    -0.00     0.00     0.00     0.00
eigval :       16.24    23.12    29.17    39.69    42.76    50.50
eigval :       70.85    78.73    86.18   105.36   113.70   117.59
eigval :      142.67   168.41   197.76   206.65   222.19   233.28
eigval :      255.28   263.00   273.66   281.11   303.98   339.10
eigval :      354.13   401.44   407.34   445.42   494.32   514.88
eigval :      522.60   741.53   764.31   772.00   777.99   791.36
eigval :      808.58   816.22   836.14   853.16   883.02   912.08
eigval :      921.89   929.27   937.84   950.97   954.62   983.76
eigval :      999.44  1012.67  1016.70  1036.51  1041.39  1065.60
eigval :     1070.38  1078.15  1097.71  1109.78  1115.32  1120.31
eigval :     1132.07  1136.80  1138.58  1145.98  1150.57  1154.75
eigval :     1168.84  1181.79  1187.74  1206.43  1226.12  1247.60
eigval :     1254.69  1260.40  1264.14  1271.77  1273.45  1281.11
eigval :     1286.61  1289.42  1294.10  1297.39  1300.93  1315.89
eigval :     1319.48  1330.70  1353.92  1354.54  1355.65  1357.21
eigval :     1362.76  1370.24  1374.30  1376.85  1378.39  1380.05
eigval :     1415.77  1416.80  1484.42  1488.66  1489.16  1489.93
eigval :     1491.99  1492.58  1494.50  1496.15  1497.10  1497.62
eigval :     1500.27  1501.22  1505.25  1506.13  1507.89  1508.26
eigval :     1509.21  1512.58  1513.58  2950.90  2953.54  2954.02
eigval :     2954.93  2956.56  2958.69  2959.26  2959.71  2960.74
eigval :     2962.09  2962.50  2966.16  2969.33  2971.21  2974.24
eigval :     2974.62  2975.96  2977.38  2978.27  2979.95  2980.36
eigval :     2981.01  2982.66  2984.26  2986.65  2991.63  2993.57
eigval :     2998.74  3013.55  3020.48  3030.27  3031.59  3033.01
eigval :     3035.98  3042.51  3044.00
           -------------------------------------------------
          |                Property Printout                |
           -------------------------------------------------

    * Orbital Energies and Occupations

         #    Occupation            Energy/Eh            Energy/eV
      -------------------------------------------------------------
         1        2.0000           -0.6237410             -16.9729
       ...           ...                  ...                  ...
        40        2.0000           -0.4357978             -11.8587
        41        2.0000           -0.4314540             -11.7405
        42        2.0000           -0.4291204             -11.6770
        43        2.0000           -0.4266541             -11.6098
        44        2.0000           -0.4227096             -11.5025
        45        2.0000           -0.4212170             -11.4619
        46        2.0000           -0.4191221             -11.4049
        47        2.0000           -0.4155655             -11.3081
        48        2.0000           -0.4144686             -11.2783
        49        2.0000           -0.4132107             -11.2440
        50        2.0000           -0.4109287             -11.1819
        51        2.0000           -0.4091446             -11.1334
        52        2.0000           -0.4051511             -11.0247 (HOMO)
        53                          0.0552104               1.5024 (LUMO)
        54                          0.0592839               1.6132
        55                          0.0752131               2.0467
        56                          0.0812979               2.2122
        57                          0.0935873               2.5466
        58                          0.0990736               2.6959
        59                          0.1031868               2.8079
        60                          0.1072494               2.9184
        61                          0.1118194               3.0428
        62                          0.1160548               3.1580
        63                          0.1199323               3.2635
       ...                                ...                  ...
       104                          0.3468042               9.4370
      -------------------------------------------------------------
                  HL-Gap            0.4603615 Eh           12.5271 eV
             Fermi-level           -0.1749703 Eh           -4.7612 eV

     #   Z          covCN         q      C6AA      α(0)
     1   6 C        3.751    -0.100    22.480     6.762
     2   6 C        3.800    -0.053    21.519     6.605
     3   6 C        3.802    -0.058    21.607     6.618
     4   6 C        3.802    -0.056    21.581     6.614
     5   6 C        3.802    -0.058    21.613     6.619
     6   6 C        3.801    -0.056    21.580     6.614
     7   6 C        3.801    -0.058    21.611     6.619
     8   6 C        3.801    -0.059    21.637     6.623
     9   6 C        3.801    -0.058    21.624     6.621
    10   6 C        3.800    -0.057    21.603     6.618
    11   6 C        3.801    -0.056    21.584     6.615
    12   6 C        3.802    -0.059    21.628     6.621
    13   6 C        3.802    -0.057    21.596     6.616
    14   6 C        3.801    -0.057    21.606     6.618
    15   6 C        3.801    -0.058    21.618     6.620
    16   6 C        3.800    -0.053    21.529     6.606
    17   6 C        3.751    -0.101    22.485     6.762
    18   1 H        0.925     0.030     2.592     2.518
    19   1 H        0.925     0.037     2.490     2.468
    20   1 H        0.925     0.032     2.555     2.500
    21   1 H        0.924     0.028     2.614     2.528
    22   1 H        0.924     0.027     2.632     2.537
    23   1 H        0.924     0.026     2.647     2.544
    24   1 H        0.924     0.031     2.568     2.506
    25   1 H        0.924     0.029     2.604     2.524
    26   1 H        0.924     0.026     2.646     2.544
    27   1 H        0.924     0.035     2.522     2.484
    28   1 H        0.924     0.026     2.650     2.546
    29   1 H        0.924     0.026     2.650     2.546
    30   1 H        0.924     0.029     2.604     2.524
    31   1 H        0.924     0.028     2.622     2.532
    32   1 H        0.924     0.027     2.627     2.534
    33   1 H        0.925     0.038     2.470     2.458
    34   1 H        0.924     0.025     2.665     2.553
    35   1 H        0.925     0.037     2.495     2.470
    36   1 H        0.924     0.024     2.667     2.554
    37   1 H        0.924     0.027     2.630     2.536
    38   1 H        0.924     0.027     2.633     2.538
    39   1 H        0.924     0.028     2.622     2.532
    40   1 H        0.924     0.025     2.655     2.548
    41   1 H        0.924     0.028     2.622     2.532
    42   1 H        0.924     0.038     2.471     2.458
    43   1 H        0.924     0.026     2.641     2.542
    44   1 H        0.924     0.025     2.661     2.551
    45   1 H        0.924     0.033     2.539     2.492
    46   1 H        0.924     0.028     2.611     2.527
    47   1 H        0.924     0.029     2.607     2.525
    48   1 H        0.924     0.029     2.602     2.522
    49   1 H        0.924     0.030     2.584     2.514
    50   1 H        0.924     0.026     2.638     2.540
    51   1 H        0.925     0.033     2.549     2.497
    52   1 H        0.925     0.031     2.579     2.511
    53   1 H        0.925     0.033     2.550     2.497

 Mol. C6AA /au·bohr⁶  :      18767.728455
 Mol. C8AA /au·bohr⁸  :     392783.666592
 Mol. α(0) /au        :        203.498989


Wiberg/Mayer (AO) data.
largest (>0.10) Wiberg bond orders for each atom

 ---------------------------------------------------------------------------
     #   Z sym  total        # sym  WBO       # sym  WBO       # sym  WBO
 ---------------------------------------------------------------------------
     1   6 C    3.997 --     2 C    1.020    18 H    0.988    20 H    0.986
                            19 H    0.985
     2   6 C    3.998 --     1 C    1.020     3 C    1.007    22 H    0.979
                            21 H    0.978
     3   6 C    3.997 --     4 C    1.008     2 C    1.007    23 H    0.978
                            24 H    0.976
     4   6 C    3.998 --     3 C    1.008     5 C    1.006    26 H    0.978
                            25 H    0.975
     5   6 C    3.997 --     6 C    1.008     4 C    1.006    28 H    0.978
                            27 H    0.971
     6   6 C    3.997 --     5 C    1.008     7 C    1.007    29 H    0.977
                            30 H    0.973
     7   6 C    3.997 --     8 C    1.007     6 C    1.007    31 H    0.978
                            32 H    0.978
     8   6 C    3.997 --     9 C    1.009     7 C    1.007    34 H    0.978
                            33 H    0.969
     9   6 C    3.997 --     8 C    1.009    10 C    1.007    36 H    0.978
                            35 H    0.969
    10   6 C    3.997 --     9 C    1.007    11 C    1.006    37 H    0.978
                            38 H    0.978
    11   6 C    3.997 --    12 C    1.008    10 C    1.006    40 H    0.977
                            39 H    0.974
    12   6 C    3.997 --    11 C    1.008    13 C    1.008    41 H    0.976
                            42 H    0.971
    13   6 C    3.997 --    12 C    1.008    14 C    1.006    43 H    0.978
                            44 H    0.977
    14   6 C    3.997 --    15 C    1.009    13 C    1.006    46 H    0.976
                            45 H    0.974
    15   6 C    3.998 --    14 C    1.009    16 C    1.007    47 H    0.977
                            48 H    0.975
    16   6 C    3.998 --    17 C    1.020    15 C    1.007    50 H    0.979
                            49 H    0.977
    17   6 C    3.997 --    16 C    1.020    51 H    0.988    52 H    0.988
                            53 H    0.985
    18   1 H    0.999 --     1 C    0.988
    19   1 H    0.999 --     1 C    0.985
    20   1 H    0.999 --     1 C    0.986
    21   1 H    0.999 --     2 C    0.978
    22   1 H    0.999 --     2 C    0.979
    23   1 H    0.999 --     3 C    0.978
    24   1 H    0.999 --     3 C    0.976
    25   1 H    0.999 --     4 C    0.975
    26   1 H    0.999 --     4 C    0.978
    27   1 H    0.999 --     5 C    0.971
    28   1 H    0.999 --     5 C    0.978
    29   1 H    0.999 --     6 C    0.977
    30   1 H    0.999 --     6 C    0.973
    31   1 H    0.999 --     7 C    0.978
    32   1 H    0.999 --     7 C    0.978
    33   1 H    0.999 --     8 C    0.969
    34   1 H    0.999 --     8 C    0.978
    35   1 H    0.999 --     9 C    0.969
    36   1 H    0.999 --     9 C    0.978
    37   1 H    0.999 --    10 C    0.978
    38   1 H    0.999 --    10 C    0.978
    39   1 H    0.999 --    11 C    0.974
    40   1 H    0.999 --    11 C    0.977
    41   1 H    0.999 --    12 C    0.976
    42   1 H    0.999 --    12 C    0.971
    43   1 H    0.999 --    13 C    0.978
    44   1 H    0.999 --    13 C    0.977
    45   1 H    0.999 --    14 C    0.974
    46   1 H    0.999 --    14 C    0.976
    47   1 H    0.999 --    15 C    0.977
    48   1 H    0.999 --    15 C    0.975
    49   1 H    0.999 --    16 C    0.977
    50   1 H    0.999 --    16 C    0.979
    51   1 H    0.999 --    17 C    0.988
    52   1 H    0.999 --    17 C    0.988
    53   1 H    0.999 --    17 C    0.985
 ---------------------------------------------------------------------------

Topologies differ in total number of bonds
Writing topology from bond orders to xtbtopo.mol

molecular dipole:
                 x           y           z       tot (Debye)
 q only:        0.033      -0.008       0.005
   full:        0.024      -0.004       0.001       0.063
molecular quadrupole (traceless):
                xx          xy          yy          xz          yz          zz
 q only:        0.087      -0.182      -0.683       0.051       0.175       0.597
  q+dip:       -2.172       1.112       1.333      -0.017       0.203       0.840
   full:       -0.985       0.485       0.481       0.015       0.154       0.504

           -------------------------------------------------
          |                Geometry Summary                 |
           -------------------------------------------------

      molecular mass/u    :      240.4683773
   center of mass at/Å    :        0.0003990       0.0003982       0.0007248
  moments of inertia/u·Å² :        0.1238559E+04   0.1953088E+04   0.2936707E+04
rotational constants/cm⁻¹ :        0.1361068E-01   0.8631271E-02   0.5740319E-02

 * 52 selected distances

     #   Z          #   Z                                           value/Å
     1   6 C        2   6 C                                       1.5241978
     2   6 C        3   6 C                                       1.5290802
     3   6 C        4   6 C                                       1.5273226
     4   6 C        5   6 C                                       1.5269312
     5   6 C        6   6 C                                       1.5273199
     6   6 C        7   6 C                                       1.5309463
     7   6 C        8   6 C                                       1.5302732
     8   6 C        9   6 C                                       1.5277809
     9   6 C       10   6 C                                       1.5303703
    10   6 C       11   6 C                                       1.5314054 (max)
    11   6 C       12   6 C                                       1.5272302
    12   6 C       13   6 C                                       1.5275427
    13   6 C       14   6 C                                       1.5296425
    14   6 C       15   6 C                                       1.5271670
    15   6 C       16   6 C                                       1.5295189
    16   6 C       17   6 C                                       1.5243529
     1   6 C       18   1 H                                       1.0878043
     1   6 C       19   1 H                                       1.0877558
     1   6 C       20   1 H                                       1.0871565
     2   6 C       21   1 H                                       1.0925764
     2   6 C       22   1 H                                       1.0928329
     3   6 C       23   1 H                                       1.0931500
     3   6 C       24   1 H                                       1.0929792
     4   6 C       25   1 H                                       1.0919827
     4   6 C       26   1 H                                       1.0928930
     5   6 C       27   1 H                                       1.0910917
     5   6 C       28   1 H                                       1.0928651
     6   6 C       29   1 H                                       1.0932790
     6   6 C       30   1 H                                       1.0917478
     7   6 C       31   1 H                                       1.0930956
     7   6 C       32   1 H                                       1.0930856
     8   6 C       33   1 H                                       1.0887648
     8   6 C       34   1 H                                       1.0929877
     9   6 C       35   1 H                                       1.0892365
     9   6 C       36   1 H                                       1.0932016
    10   6 C       37   1 H                                       1.0931950
    10   6 C       38   1 H                                       1.0930686
    11   6 C       39   1 H                                       1.0919856
    11   6 C       40   1 H                                       1.0932943
    12   6 C       41   1 H                                       1.0915089
    12   6 C       42   1 H                                       1.0906506
    13   6 C       43   1 H                                       1.0925703
    13   6 C       44   1 H                                       1.0938033
    14   6 C       45   1 H                                       1.0927134
    14   6 C       46   1 H                                       1.0918344
    15   6 C       47   1 H                                       1.0928284
    15   6 C       48   1 H                                       1.0917002
    16   6 C       49   1 H                                       1.0924996
    16   6 C       50   1 H                                       1.0928907
    17   6 C       51   1 H                                       1.0880294
    17   6 C       52   1 H                                       1.0877912
    17   6 C       53   1 H                                       1.0869476 (min)

 * 2 distinct bonds (by element types)

   Z      Z             #   av. dist./Å        max./Å        min./Å
   1 H    6 C          36     1.0915499     1.0938033     1.0869476
   6 C    6 C          16     1.5281926     1.5314054     1.5241978

           -------------------------------------------------
          |               Frequency Printout                |
           -------------------------------------------------
 projected vibrational frequencies (cm⁻¹)
eigval :       -0.00    -0.00    -0.00     0.00     0.00     0.00
eigval :       16.24    23.12    29.17    39.69    42.76    50.50
eigval :       70.85    78.73    86.18   105.36   113.70   117.59
eigval :      142.67   168.41   197.76   206.65   222.19   233.28
eigval :      255.28   263.00   273.66   281.11   303.98   339.10
eigval :      354.13   401.44   407.34   445.42   494.32   514.88
eigval :      522.60   741.53   764.31   772.00   777.99   791.36
eigval :      808.58   816.22   836.14   853.16   883.02   912.08
eigval :      921.89   929.27   937.84   950.97   954.62   983.76
eigval :      999.44  1012.67  1016.70  1036.51  1041.39  1065.60
eigval :     1070.38  1078.15  1097.71  1109.78  1115.32  1120.31
eigval :     1132.07  1136.80  1138.58  1145.98  1150.57  1154.75
eigval :     1168.84  1181.79  1187.74  1206.43  1226.12  1247.60
eigval :     1254.69  1260.40  1264.14  1271.77  1273.45  1281.11
eigval :     1286.61  1289.42  1294.10  1297.39  1300.93  1315.89
eigval :     1319.48  1330.70  1353.92  1354.54  1355.65  1357.21
eigval :     1362.76  1370.24  1374.30  1376.85  1378.39  1380.05
eigval :     1415.77  1416.80  1484.42  1488.66  1489.16  1489.93
eigval :     1491.99  1492.58  1494.50  1496.15  1497.10  1497.62
eigval :     1500.27  1501.22  1505.25  1506.13  1507.89  1508.26
eigval :     1509.21  1512.58  1513.58  2950.90  2953.54  2954.02
eigval :     2954.93  2956.56  2958.69  2959.26  2959.71  2960.74
eigval :     2962.09  2962.50  2966.16  2969.33  2971.21  2974.24
eigval :     2974.62  2975.96  2977.38  2978.27  2979.95  2980.36
eigval :     2981.01  2982.66  2984.26  2986.65  2991.63  2993.57
eigval :     2998.74  3013.55  3020.48  3030.27  3031.59  3033.01
eigval :     3035.98  3042.51  3044.00
 reduced masses (amu)
   1:  9.95   2: 10.35   3: 10.11   4: 10.17   5: 10.30   6: 10.04   7:  9.26   8:  9.25
   9:  8.30  10:  9.33  11:  8.65  12:  8.54  13:  8.52  14:  7.66  15:  7.99  16:  8.47
  17:  6.40  18:  7.00  19:  6.53  20:  7.50  21:  6.92  22:  5.04  23:  7.25  24:  6.73
  25:  5.33  26:  8.00  27:  7.25  28:  5.82  29:  7.55  30:  7.70  31:  8.76  32:  8.35
  33:  8.13  34:  8.22  35:  8.28  36:  8.41  37:  8.23  38:  2.58  39:  2.11  40:  2.46
  41:  2.68  42:  3.21  43:  3.16  44:  3.22  45:  3.85  46:  5.28  47:  5.26  48:  5.77
  49:  7.95  50:  7.05  51:  5.84  52:  6.32  53:  6.56  54:  6.52  55:  5.54  56:  5.64
  57:  5.14  58:  5.00  59:  5.21  60:  6.07  61:  5.60  62:  5.57  63:  8.42  64:  7.88
  65:  6.21  66:  6.62  67:  7.51  68:  7.48  69:  7.80  70:  7.53  71:  8.09  72:  7.21
  73:  5.34  74:  6.34  75:  6.21  76:  4.65  77:  4.24  78:  3.73  79:  3.67  80:  3.24
  81:  3.41  82:  2.96  83:  3.16  84:  2.44  85:  2.36  86:  2.17  87:  1.93  88:  2.32
  89:  2.39  90:  3.40  91:  3.31  92:  3.49  93:  4.54  94:  4.54  95:  4.37  96:  4.58
  97:  4.48  98:  4.89  99:  5.31 100:  5.04 101:  5.37 102:  5.23 103:  3.21 104:  3.21
 105:  1.92 106:  1.90 107:  1.92 108:  1.88 109:  1.89 110:  1.87 111:  1.83 112:  1.93
 113:  1.94 114:  1.90 115:  1.92 116:  2.02 117:  1.89 118:  1.69 119:  1.78 120:  1.70
 121:  1.85 122:  1.55 123:  1.65 124:  1.88 125:  1.90 126:  1.90 127:  1.89 128:  1.90
 129:  1.90 130:  1.86 131:  1.87 132:  1.92 133:  1.87 134:  1.88 135:  1.74 136:  1.73
 137:  1.69 138:  1.59 139:  1.60 140:  1.63 141:  1.59 142:  1.55 143:  1.56 144:  1.57
 145:  1.57 146:  1.63 147:  1.72 148:  1.72 149:  1.70 150:  1.58 151:  1.60 152:  1.68
 153:  1.64 154:  1.91 155:  1.91 156:  1.82 157:  1.88 158:  1.34 159:  1.43
 IR intensities (km·mol⁻¹)
   1:  0.00   2:  0.00   3:  0.00   4:  0.00   5:  0.00   6:  0.00   7:  0.00   8:  0.01
   9:  0.00  10:  0.00  11:  0.00  12:  0.00  13:  0.01  14:  0.01  15:  0.01  16:  0.04
  17:  0.06  18:  0.01  19:  0.02  20:  0.03  21:  0.05  22:  0.08  23:  0.19  24:  0.02
  25:  0.13  26:  0.27  27:  0.08  28:  0.27  29:  0.38  30:  0.30  31:  0.03  32:  0.18
  33:  0.59  34:  0.76  35:  0.20  36:  0.30  37:  1.93  38: 10.24  39: 30.88  40:  0.22
  41: 10.52  42:  1.50  43:  3.87  44:  6.38  45:  0.31  46:  1.86  47:  2.29  48:  0.86
  49:  0.09  50:  3.00  51:  0.57  52:  1.61  53:  0.65  54:  2.18  55:  0.13  56:  0.15
  57:  2.02  58:  0.71  59:  0.71  60:  0.45  61:  0.10  62:  0.33  63:  0.04  64:  0.11
  65:  0.51  66:  0.76  67:  0.15  68:  0.42  69:  0.99  70:  0.79  71:  0.31  72:  0.07
  73:  0.01  74:  0.36  75:  1.57  76:  0.55  77:  1.17  78:  1.26  79:  0.69  80:  0.37
  81:  0.55  82:  0.36  83:  0.52  84:  0.34  85:  1.07  86:  0.39  87:  0.21  88:  0.13
  89:  0.17  90:  0.02  91:  0.99  92:  0.12  93:  3.34  94:  1.56  95:  1.55  96:  4.63
  97:  2.54  98:  0.36  99:  0.12 100:  0.84 101:  1.87 102:  0.76 103:  3.12 104:  1.56
 105:  0.23 106:  0.05 107:  0.21 108:  0.17 109:  0.51 110:  0.26 111:  0.91 112:  0.07
 113:  0.38 114:  0.52 115:  0.20 116:  0.42 117:  0.10 118:  1.93 119:  0.07 120:  0.92
 121:  0.13 122:  1.37 123:  4.57 124: 25.57 125: 10.17 126:  4.13 127:  3.08 128: 18.56
 129: 20.96 130: 40.03 131:  3.38 132:  8.39 133: 16.28 134: 18.17 135: 23.69 136: 35.42
 137: 20.67 138: 65.74 139: 48.44 140:  8.45 141:110.54 142: 38.09 143: 91.35 144: 35.63
 145: 54.83 146: 59.23 147: 22.39 148:110.27 149:180.06 150: 78.53 151: 77.88 152: 56.81
 153: 93.76 154: 51.91 155: 55.63 156: 68.51 157: 48.03 158: 33.02 159: 35.39
 Raman intensities (amu)
   1:  0.00   2:  0.00   3:  0.00   4:  0.00   5:  0.00   6:  0.00   7:  0.00   8:  0.00
   9:  0.00  10:  0.00  11:  0.00  12:  0.00  13:  0.00  14:  0.00  15:  0.00  16:  0.00
  17:  0.00  18:  0.00  19:  0.00  20:  0.00  21:  0.00  22:  0.00  23:  0.00  24:  0.00
  25:  0.00  26:  0.00  27:  0.00  28:  0.00  29:  0.00  30:  0.00  31:  0.00  32:  0.00
  33:  0.00  34:  0.00  35:  0.00  36:  0.00  37:  0.00  38:  0.00  39:  0.00  40:  0.00
  41:  0.00  42:  0.00  43:  0.00  44:  0.00  45:  0.00  46:  0.00  47:  0.00  48:  0.00
  49:  0.00  50:  0.00  51:  0.00  52:  0.00  53:  0.00  54:  0.00  55:  0.00  56:  0.00
  57:  0.00  58:  0.00  59:  0.00  60:  0.00  61:  0.00  62:  0.00  63:  0.00  64:  0.00
  65:  0.00  66:  0.00  67:  0.00  68:  0.00  69:  0.00  70:  0.00  71:  0.00  72:  0.00
  73:  0.00  74:  0.00  75:  0.00  76:  0.00  77:  0.00  78:  0.00  79:  0.00  80:  0.00
  81:  0.00  82:  0.00  83:  0.00  84:  0.00  85:  0.00  86:  0.00  87:  0.00  88:  0.00
  89:  0.00  90:  0.00  91:  0.00  92:  0.00  93:  0.00  94:  0.00  95:  0.00  96:  0.00
  97:  0.00  98:  0.00  99:  0.00 100:  0.00 101:  0.00 102:  0.00 103:  0.00 104:  0.00
 105:  0.00 106:  0.00 107:  0.00 108:  0.00 109:  0.00 110:  0.00 111:  0.00 112:  0.00
 113:  0.00 114:  0.00 115:  0.00 116:  0.00 117:  0.00 118:  0.00 119:  0.00 120:  0.00
 121:  0.00 122:  0.00 123:  0.00 124:  0.00 125:  0.00 126:  0.00 127:  0.00 128:  0.00
 129:  0.00 130:  0.00 131:  0.00 132:  0.00 133:  0.00 134:  0.00 135:  0.00 136:  0.00
 137:  0.00 138:  0.00 139:  0.00 140:  0.00 141:  0.00 142:  0.00 143:  0.00 144:  0.00
 145:  0.00 146:  0.00 147:  0.00 148:  0.00 149:  0.00 150:  0.00 151:  0.00 152:  0.00
 153:  0.00 154:  0.00 155:  0.00 156:  0.00 157:  0.00 158:  0.00 159:  0.00
 output can be read by thermo (or use thermo option).
 writing <g98.out> molden fake output.
 recommended (thermochemical) frequency scaling factor: 1.0
           -------------------------------------------------
          |             Thermodynamic Functions             |
           -------------------------------------------------

Molecule has no symmetry elements
It seems to be the C1 point group
c1  symmetry found (for desy threshold:  0.10E+00) used in thermo

          ...................................................
          :                      SETUP                      :
          :.................................................:
          :  # frequencies                         153      :
          :  # imaginary freq.                       0      :
          :  linear?                             false      :
          :  only rotor calc.                    false      :
          :  symmetry                               c1      :
          :  rotational number                       1      :
          :  scaling factor                  1.0000000      :
          :  rotor cutoff                   50.0000000 cm⁻¹ :
          :  imag. cutoff                  -20.0000000 cm⁻¹ :
          :.................................................:

    mode    ω/cm⁻¹     T·S(HO)/kcal·mol⁻¹    T·S(FR)/kcal·mol⁻¹   T·S(vib)
   ------------------------------------------------------------------------
       1     16.24    -2.10133 (  1.10%)    -1.38956 ( 98.90%)    -1.39739
       2     23.12    -1.89229 (  4.37%)    -1.28500 ( 95.63%)    -1.31153
       3     29.17    -1.75470 ( 10.38%)    -1.21614 ( 89.62%)    -1.27203
       4     39.69    -1.57265 ( 28.41%)    -1.12493 ( 71.59%)    -1.25214
       5     42.76    -1.52858 ( 34.85%)    -1.10282 ( 65.15%)    -1.25121
       6     50.50    -1.43038 ( 51.00%)    -1.05353 ( 49.00%)    -1.24574
       7     70.85    -1.23126 ( 80.12%)    -0.95327 ( 19.88%)    -1.17600
       8     78.73    -1.16946 ( 86.01%)    -0.92204 ( 13.99%)    -1.13483
       9     86.18    -1.11659 ( 89.82%)    -0.89526 ( 10.18%)    -1.09406
      10    105.36    -0.99962 ( 95.17%)    -0.83573 (  4.83%)    -0.99170
      11    113.70    -0.95550 ( 96.39%)    -0.81316 (  3.61%)    -0.95037
      12    117.59    -0.93608 ( 96.83%)    -0.80319 (  3.17%)    -0.93187
      13    142.67    -0.82520 ( 98.51%)    -0.74592 (  1.49%)    -0.82402
      14    168.41    -0.73142 ( 99.23%)    -0.69679 (  0.77%)    -0.73115
      15    197.76    -0.64216 ( 99.59%)    -0.64919 (  0.41%)    -0.64219
      16    206.65    -0.61807 ( 99.66%)    -0.63616 (  0.34%)    -0.61813
      17    222.19    -0.57876 ( 99.74%)    -0.61469 (  0.26%)    -0.57885
      18    233.28    -0.55264 ( 99.79%)    -0.60026 (  0.21%)    -0.55274
      19    255.28    -0.50502 ( 99.85%)    -0.57357 (  0.15%)    -0.50512
      20    263.00    -0.48950 ( 99.87%)    -0.56475 (  0.13%)    -0.48960
      21    273.66    -0.46898 ( 99.89%)    -0.55297 (  0.11%)    -0.46907
      22    281.11    -0.45524 ( 99.90%)    -0.54501 (  0.10%)    -0.45533
   ------------------------------------------------------------------------

   temp. (K)  partition function   enthalpy   heat capacity  entropy
                                   cal/mol     cal/K/mol   cal/K/mol   J/K/mol
 298.15  VIB  0.285E+11            12337.191     70.201     80.227
         ROT  0.644E+07              888.752      2.981     34.137
         INT  0.183E+18            13225.943     73.182    114.364
         TR   0.361E+28             1481.254      4.968     42.314
         TOT                       14707.1969    78.1504   156.6781   655.5413

       T/K    H(0)-H(T)+PV         H(T)/Eh          T*S/Eh         G(T)/Eh
   ------------------------------------------------------------------------
    298.15    0.234374E-01    0.521788E+00    0.744428E-01    0.447345E+00
   ------------------------------------------------------------------------

         :::::::::::::::::::::::::::::::::::::::::::::::::::::
         ::                  THERMODYNAMIC                  ::
         :::::::::::::::::::::::::::::::::::::::::::::::::::::
         :: total free energy         -54.350510607065 Eh   ::
         ::.................................................::
         :: total energy              -54.797855407584 Eh   ::
         :: zero point energy           0.498350230111 Eh   ::
         :: G(RRHO) w/o ZPVE           -0.051005429592 Eh   ::
         :: G(RRHO) contrib.            0.447344800519 Eh   ::
         :::::::::::::::::::::::::::::::::::::::::::::::::::::
 
 normal mode %tage of torsion character
   1:  0.00   2:  0.00   3:  0.00   4:  0.00   5:  0.00   6:  0.00   7:  0.33   8:  0.36
   9:  0.38  10:  0.41  11:  0.35  12:  0.42  13:  0.47  14:  0.53  15:  0.56  16:  0.48
  17:  0.61  18:  0.63  19:  0.65  20:  0.63  21:  0.44  22:  0.51  23:  0.59  24:  0.66
  25:  0.73  26:  0.53  27:  0.57  28:  0.66  29:  0.47  30:  0.41  31:  0.30  32:  0.23
  33:  0.26  34:  0.21  35:  0.15  36:  0.10  37:  0.23  38:  0.57  39:  0.53  40:  0.48
  41:  0.51  42:  0.49  43:  0.53  44:  0.44  45:  0.43  46:  0.40  47:  0.41  48:  0.42
  49:  0.23  50:  0.22  51:  0.31  52:  0.34  53:  0.31  54:  0.30  55:  0.34  56:  0.34
  57:  0.22  58:  0.31  59:  0.19  60:  0.24  61:  0.25  62:  0.34  63:  0.09  64:  0.19
  65:  0.31  66:  0.25  67:  0.11  68:  0.17  69:  0.22  70:  0.27  71:  0.31  72:  0.24
  73:  0.18  74:  0.42  75:  0.38  76:  0.35  77:  0.30  78:  0.26  79:  0.35  80:  0.36
  81:  0.20  82:  0.28  83:  0.18  84:  0.17  85:  0.11  86:  0.14  87:  0.11  88:  0.09
  89:  0.09  90:  0.14  91:  0.10  92:  0.11  93:  0.08  94:  0.09  95:  0.08  96:  0.11
  97:  0.08  98:  0.08  99:  0.08 100:  0.08 101:  0.06 102:  0.08 103:  0.00 104:  0.00
 105:  0.61 106:  0.65 107:  0.66 108:  0.66 109:  0.65 110:  0.66 111:  0.66 112:  0.62
 113:  0.62 114:  0.65 115:  0.63 116:  0.62 117:  0.66 118:  0.79 119:  0.72 120:  0.77
 121:  0.62 122:  0.89 123:  0.83 124:  0.20 125:  0.25 126:  0.32 127:  0.26 128:  0.19
 129:  0.16 130:  0.28 131:  0.28 132:  0.33 133:  0.19 134:  0.17 135:  0.05 136:  0.06
 137:  0.01 138:  0.04 139:  0.02 140:  0.05 141:  0.02 142:  0.02 143:  0.03 144:  0.02
 145:  0.02 146:  0.02 147:  0.02 148:  0.01 149:  0.03 150:  0.03 151:  0.02 152:  0.04
 153:  0.08 154:  0.04 155:  0.04 156:  0.04 157:  0.07 158:  0.01 159:  0.01
 recommended # of modes for mode following           4

optimized geometry written to: xtbopt.xyz


           -------------------------------------------------
          | TOTAL ENERGY              -54.797855407584 Eh   |
          | TOTAL ENTHALPY            -54.276067767357 Eh   |
          | TOTAL FREE ENERGY         -54.350510607065 Eh   |
          | GRADIENT NORM               0.000360537092 Eh/α |
          | HOMO-LUMO GAP              12.527074599436 eV   |
           -------------------------------------------------

------------------------------------------------------------------------
 * finished run on 2024/04/23 at 12:10:55.850     
------------------------------------------------------------------------
 total:
 * wall-time:     0 d,  0 h,  0 min,  3.451 sec
 *  cpu-time:     0 d,  0 h,  0 min, 13.406 sec
 * ratio c/w:     3.885 speedup
 SCF:
 * wall-time:     0 d,  0 h,  0 min,  0.049 sec
 *  cpu-time:     0 d,  0 h,  0 min,  0.168 sec
 * ratio c/w:     3.425 speedup
 ANC optimizer:
 * wall-time:     0 d,  0 h,  0 min,  0.309 sec
 *  cpu-time:     0 d,  0 h,  0 min,  1.177 sec
 * ratio c/w:     3.810 speedup
 analytical hessian:
 * wall-time:     0 d,  0 h,  0 min,  3.008 sec
 *  cpu-time:     0 d,  0 h,  0 min, 11.810 sec
 * ratio c/w:     3.926 speedup

