53
 energy: -54.793828303176 gnorm: 0.036923883246 xtb: 6.6.1 (8d0f1dd)
C            3.05675400000000       -2.42350500000000        0.41865000000000
C            2.26306000000000       -3.36330300000000       -0.47590600000000
C            0.92177400000000       -2.77988600000000       -0.93341000000000
C           -0.09144500000000       -2.61313100000000        0.19997700000000
C           -1.43837800000000       -2.07506200000000       -0.28335900000000
C           -2.46061900000000       -1.91913900000000        0.84406400000000
C           -3.81371200000000       -1.36990200000000        0.37644600000000
C           -3.74068300000000        0.04087700000000       -0.21627300000000
C           -3.34991400000000        1.11273800000000        0.80383500000000
C           -3.06555200000000        2.48222400000000        0.17876600000000
C           -1.88592700000000        2.48513800000000       -0.80037000000000
C           -0.57329500000000        2.00857600000000       -0.17677000000000
C            0.58691400000000        1.97584100000000       -1.17181800000000
C            1.86265400000000        1.35814900000000       -0.59149400000000
C            2.50535200000000        2.20026900000000        0.51118900000000
C            3.74969000000000        1.55270900000000        1.12855700000000
C            4.90351300000000        1.40338200000000        0.14867100000000
H            4.01400400000000       -2.85593100000000        0.72059300000000
H            3.27192700000000       -1.48301000000000       -0.09190100000000
H            2.51079300000000       -2.17890000000000        1.33162800000000
H            2.08288200000000       -4.31366800000000        0.04462700000000
H            2.86883800000000       -3.63047900000000       -1.35386500000000
H            0.48106500000000       -3.41746900000000       -1.71154700000000
H            1.08940000000000       -1.81146500000000       -1.42080800000000
H            0.31262400000000       -1.94459400000000        0.96965000000000
H           -0.23932700000000       -3.57508200000000        0.70647000000000
H           -1.27913000000000       -1.11401500000000       -0.78543000000000
H           -1.84467600000000       -2.73613600000000       -1.05901000000000
H           -2.60137700000000       -2.89219900000000        1.33356800000000
H           -2.04306300000000       -1.27370100000000        1.62545800000000
H           -4.23842200000000       -2.06082000000000       -0.36396800000000
H           -4.52572100000000       -1.36892800000000        1.21222500000000
H           -3.03010100000000        0.04355800000000       -1.04922100000000
H           -4.70196800000000        0.31417600000000       -0.67195200000000
H           -2.46976800000000        0.78505400000000        1.36706600000000
H           -4.14328100000000        1.19610300000000        1.55887100000000
H           -2.86974700000000        3.21473600000000        0.97323000000000
H           -3.97081000000000        2.84115500000000       -0.32835100000000
H           -2.12096500000000        1.85964700000000       -1.66968800000000
H           -1.74255900000000        3.49218300000000       -1.21442600000000
H           -0.32294600000000        2.64645100000000        0.67913100000000
H           -0.70327300000000        1.00539700000000        0.24477700000000
H            0.79504000000000        2.99123200000000       -1.53103100000000
H            0.27367200000000        1.41443500000000       -2.06241700000000
H            1.63430400000000        0.36045400000000       -0.19766400000000
H            2.59248100000000        1.19119800000000       -1.39385900000000
H            2.76531400000000        3.18781500000000        0.11000700000000
H            1.76428600000000        2.39642900000000        1.29643500000000
H            3.47864600000000        0.57123100000000        1.54047700000000
H            4.07989000000000        2.14218600000000        1.99607500000000
H            5.18784200000000        2.36826500000000       -0.27646600000000
H            5.79188700000000        0.98003900000000        0.62420800000000
H            4.64262300000000        0.74928500000000       -0.68522200000000
53
 energy: -54.797091670115 gnorm: 0.016087020191 xtb: 6.6.1 (8d0f1dd)
C            3.05273925948263       -2.42189965170002        0.41772425475834
C            2.25517620792356       -3.36359257006468       -0.47174990641747
C            0.91826652618340       -2.77582955321213       -0.92901508709658
C           -0.09425956508024       -2.61518970804775        0.20477621077693
C           -1.43596946266472       -2.07725014552632       -0.28889188182848
C           -2.45346192732419       -1.91746097218172        0.84100274479259
C           -3.80502583847847       -1.36663273060488        0.37657099498372
C           -3.73660600278080        0.04141529798354       -0.21734751474846
C           -3.34735371715187        1.10998018593534        0.80382177937612
C           -3.06042491900928        2.47506403827926        0.17538322553267
C           -1.88102975892120        2.47972024473759       -0.80172667005030
C           -0.57155267980325        2.00819543572681       -0.17132808548108
C            0.58668843040052        1.98310605023260       -1.16663915587647
C            1.85765958763531        1.35859823885769       -0.58832747733710
C            2.50672257802875        2.20342070688182        0.50695109457047
C            3.74518343932707        1.55003097386501        1.12358610836825
C            4.90091561443141        1.40506709452418        0.14524390262534
H            4.00375571680561       -2.86905754097522        0.70653336365633
H            3.26627194381810       -1.48821380297456       -0.10152886780445
H            2.50773583939498       -2.18648018050750        1.33061843366138
H            2.07308222414122       -4.30513968335398        0.05793263999742
H            2.85627623057255       -3.61090009886326       -1.35439413396914
H            0.48634252901711       -3.42887062614871       -1.69547825847752
H            1.09268510864848       -1.80508515022689       -1.40533540415932
H            0.30602582921397       -1.93376614178431        0.96179493426704
H           -0.24566235108990       -3.58241687220428        0.69599709123540
H           -1.26728516630740       -1.11250271809306       -0.77490978079740
H           -1.84346546349774       -2.74979913575436       -1.05137070684895
H           -2.61299540420665       -2.89326543759399        1.31339616224064
H           -2.03691295952730       -1.26756211957145        1.61619157050520
H           -4.22246597711976       -2.04805858831380       -0.37292369069799
H           -4.50184593715260       -1.36383295338295        1.22214395912103
H           -3.02292204694607        0.04008066297225       -1.04288358672359
H           -4.70874621537547        0.30192240713046       -0.65079063079280
H           -2.46610155641413        0.78624602903810        1.36078114767854
H           -4.15350763682837        1.21117520386056        1.53927336112044
H           -2.85926797090075        3.19541541834868        0.97619977607489
H           -3.95770497607466        2.82673640756756       -0.34573496936308
H           -2.11584656172964        1.85064873490572       -1.66565431198208
H           -1.74534687186669        3.49496921972997       -1.19109460533639
H           -0.32598652607002        2.66042563441497        0.67187759252375
H           -0.70020714318778        0.99978732206787        0.23022217823943
H            0.79941530889560        2.99898346314910       -1.51559593113464
H            0.27922976542152        1.40603008504307       -2.04654932549801
H            1.62110674552291        0.36781226737101       -0.18653754362758
H            2.57767125993023        1.21112271809199       -1.39943108219971
H            2.77632843730429        3.18330893710749        0.09869868359095
H            1.77588098234200        2.38049787713585        1.30170734724948
H            3.47571411092971        0.56595441499746        1.52235991793584
H            4.07521121510151        2.15392904780756        1.97671568979083
H            5.18003586132156        2.37316245605485       -0.27043705291537
H            5.77723270610149        0.98424024321709        0.63783558795359
H            4.63917117761354        0.74636656405040       -0.68123909146263
53
 energy: -54.797627820041 gnorm: 0.002746079271 xtb: 6.6.1 (8d0f1dd)
C            3.05217311005572       -2.42220784818926        0.41870068707749
C            2.25054626491155       -3.36446417165565       -0.46978984929139
C            0.91490883746095       -2.77565172451525       -0.92627084364011
C           -0.09610196718971       -2.61693010129810        0.20828878259573
C           -1.43442577628777       -2.07909532149632       -0.29268770954841
C           -2.44879185794702       -1.91896945077381        0.83887011959992
C           -3.79992744330307       -1.36647161875551        0.37680552465179
C           -3.73630147214814        0.04121797345591       -0.21732804790202
C           -3.34890907455184        1.10926874834245        0.80341151305573
C           -3.05805621711488        2.47196674293434        0.17238389732338
C           -1.87696844583739        2.47859637892507       -0.80222458861460
C           -0.57026955315137        2.00897080609591       -0.16702554816043
C            0.58590992355544        1.98831449500977       -1.16386316527178
C            1.85617397775011        1.36111027052968       -0.58811647787755
C            2.50649067717052        2.20552277570184        0.50586985445722
C            3.74353695769503        1.54970002626970        1.12051643078505
C            4.90237707242810        1.40551430914671        0.14278739778047
H            4.00023067503107       -2.87749641299727        0.69778117311623
H            3.26259516485193       -1.49294689260093       -0.10598697176249
H            2.50942678420124       -2.19028937531481        1.33181047412289
H            2.06621100859862       -4.29974554033121        0.06467374967084
H            2.84682795270226       -3.60318914145259       -1.35454867242201
H            0.48597328452505       -3.43316543940921       -1.68731636588904
H            1.09239627562832       -1.80378709241144       -1.39436380610971
H            0.29955051763000       -1.93054766375820        0.96016349938948
H           -0.24922833556114       -3.58558305199900        0.69123289020957
H           -1.25945951042173       -1.11495250097595       -0.77270375620768
H           -1.84169283602329       -2.75681128873791       -1.04754260082742
H           -2.61732243723425       -2.89542204746368        1.30157130279584
H           -2.03001329710076       -1.26887733508000        1.60978477302980
H           -4.21365723963768       -2.04277884448447       -0.37614153601069
H           -4.48606103054819       -1.36287261742522        1.22829441898718
H           -3.02353343930446        0.03956278511765       -1.04022717438751
H           -4.71396301247804        0.29311710272224       -0.63741223763730
H           -2.47022774416141        0.78761522468565        1.36065470060015
H           -4.16251967773186        1.22165573482572        1.52563804762596
H           -2.85430048495306        3.18600001800120        0.97516121247409
H           -3.94933311889854        2.81885857132406       -0.35756214943665
H           -2.10837573299853        1.84897803949797       -1.66392426706552
H           -1.74490426010403        3.49708351140285       -1.17792979449647
H           -0.32984304365384        2.66664663666724        0.67037286713987
H           -0.69603097843302        0.99845770387730        0.22365729366360
H            0.80124264455316        3.00404078566625       -1.50461982452606
H            0.28062161724954        1.40682813111126       -2.03913850545283
H            1.61375675037012        0.37609670283445       -0.18141729815810
H            2.56903973690872        1.22050058968523       -1.40360004963358
H            2.78245303451146        3.17901890167722        0.09258778144459
H            1.78201178453747        2.37676151598020        1.30446435155688
H            3.47347071700567        0.56512487146980        1.51018897514411
H            4.07239484321519        2.15852052112404        1.96698909659267
H            5.17663967055574        2.37502515815338       -0.26812098031744
H            5.77196328835241        0.98781332667130        0.64587371775364
H            4.64186541531962        0.74497412221942       -0.68024731199736
53
 energy: -54.797669217977 gnorm: 0.001162642833 xtb: 6.6.1 (8d0f1dd)
C            3.05313539160190       -2.42370087767587        0.41859412718789
C            2.24960097612334       -3.36632771495732       -0.46917849349514
C            0.91434337875490       -2.77596042680689       -0.92509162675983
C           -0.09670685746591       -2.61849131909237        0.20932440358085
C           -1.43423868181402       -2.08072019447940       -0.29400335970175
C           -2.44764822294622       -1.92014141051778        0.83800141223762
C           -3.79937905754716       -1.36721107866915        0.37770231544387
C           -3.73801837574222        0.04076812596043       -0.21707291921231
C           -3.35167907566766        1.10990666380361        0.80299505395459
C           -3.05865373176759        2.47204343754392        0.17066244018210
C           -1.87568301439740        2.47902566326547       -0.80206508497166
C           -0.56978450109214        2.00976839909255       -0.16517512073229
C            0.58590690758531        1.99161526377389       -1.16270081136301
C            1.85625363857645        1.36247552020016       -0.58826990070322
C            2.50770147144299        2.20736860119416        0.50454473931439
C            3.74389459936201        1.54963487421911        1.11968743393401
C            4.90424894793530        1.40620030624251        0.14234025592265
H            4.00111811075843       -2.88013146372439        0.69487586279794
H            3.26223974361841       -1.49472158378130       -0.10658951919830
H            2.51221634973602       -2.19218472590810        1.33265079103695
H            2.06448117742152       -4.30046583818066        0.06620397104390
H            2.84478535877480       -3.60504464428885       -1.35401008375977
H            0.48471771832413       -3.43252261777183       -1.68593070454296
H            1.09169274233496       -1.80381012136080       -1.39179078920134
H            0.29721614057358       -1.93210675437395        0.96152475730590
H           -0.25033522739164       -3.58692007892311        0.69162669556624
H           -1.25814740077586       -1.11744108219545       -0.77453256547667
H           -1.84091632068794       -2.75887459969827       -1.04812570193043
H           -2.61655188534398       -2.89673361255778        1.29906602197896
H           -2.02716236008846       -1.27141593389329        1.60870093490434
H           -4.21301156440396       -2.04337586009332       -0.37481298843616
H           -4.48337596910465       -1.36379284173569        1.23028394253957
H           -3.02668680908756        0.04026532440571       -1.04097808338064
H           -4.71678757835817        0.28996429428176       -0.63480348769982
H           -2.47518964172311        0.78838451406768        1.36342884312655
H           -4.16728839102301        1.22527563783637        1.52170359866083
H           -2.85542047146911        3.18596619016124        0.97308542490812
H           -3.94840736137850        2.81813394370129       -0.36137577220944
H           -2.10466449733892        1.85040557691424       -1.66473595599774
H           -1.74336706283659        3.49777414619449       -1.17551956436570
H           -0.33100072493023        2.66693605128610        0.67251757458221
H           -0.69457391355349        0.99896060159793        0.22412584015417
H            0.80128076865433        3.00777483379835       -1.50100193883386
H            0.27989194617197        1.41196107941820       -2.03839335899198
H            1.61264280614428        0.37838326079898       -0.18105100985085
H            2.56776976536471        1.22157396100948       -1.40417916739373
H            2.78465742982748        3.17997164534142        0.09071220651364
H            1.78402414296345        2.37931354755512        1.30314770611223
H            3.47308882156202        0.56483281026964        1.50719889677435
H            4.07263818100915        2.15751882049145        1.96624649968805
H            5.17738100630091        2.37572757343884       -0.26868437460759
H            5.77287287768953        0.99006132436727        0.64775790122868
H            4.64544829932358        0.74470978845414       -0.68021226786442
53
 energy: -54.797730854121 gnorm: 0.004027575549 xtb: 6.6.1 (8d0f1dd)
C            3.05759467716353       -2.43109513995377        0.41743002504273
C            2.24747978454042       -3.37366179477760       -0.46728875388827
C            0.91352027620190       -2.77855584038987       -0.92120294848013
C           -0.09862476705501       -2.62410265001594        0.21180963933748
C           -1.43424514124007       -2.08655851807416       -0.29751944679020
C           -2.44514584751520       -1.92397920211541        0.83549606384483
C           -3.79875044710779       -1.36986690305575        0.38123030608783
C           -3.74543693866894        0.03874665534170       -0.21603561191216
C           -3.36324105732303        1.11291827789557        0.80089356140339
C           -3.06245050478904        2.47283398628302        0.16426244140204
C           -1.87254785415211        2.48092231117814       -0.80084011482185
C           -0.56882915447462        2.01288801518759       -0.15894449090736
C            0.58628353121504        2.00360582313159       -1.15772840962552
C            1.85749597612653        1.36879511892518       -0.58941907092751
C            2.51353209682896        2.21378671368650        0.50021936549632
C            3.74699782411194        1.55033799783723        1.11646876325908
C            4.91198976794767        1.40898340504838        0.14165243388789
H            4.00677973194952       -2.88918285032028        0.68506587123073
H            3.26207234663720       -1.50184356728446       -0.10843343913611
H            2.52326817264301       -2.20071690443688        1.33547037655127
H            2.05942577646892       -4.30491915648499        0.07097158492846
H            2.83982728693299       -3.61577146038717       -1.35209264182381
H            0.48134527421770       -3.43032123347543       -1.68402297179814
H            1.09123532075149       -1.80497327783643       -1.38356923720089
H            0.29041924665003       -1.93882898675654        0.96690366366215
H           -0.25397958819117       -3.59234196329161        0.69280815867633
H           -1.25585140781205       -1.12595144418795       -0.78172807127977
H           -1.83918015356308       -2.76646593368675       -1.05018437683531
H           -2.61384985424803       -2.90116934649647        1.29380409692287
H           -2.01913947861386       -1.27915314318705        1.60602857800212
H           -4.21407605505886       -2.04710627734530       -0.36855532062427
H           -4.47738420220517       -1.36676259280715        1.23709263083016
H           -3.03866774135034        0.04231419521151       -1.04395407317355
H           -4.72768945610915        0.27939934201650       -0.62860188044664
H           -2.49427473693281        0.79154420916937        1.37338028150662
H           -4.18551582525161        1.23725387039500        1.50938105635916
H           -2.86333631921138        3.18849338849921        0.96535848429055
H           -3.94790847164451        2.81694446925278       -0.37470733970895
H           -2.09330504957330        1.85546374830822       -1.66759996812850
H           -1.73850788140513        3.50053006127430       -1.16938429184263
H           -0.33477122124329        2.66722735372709        0.68165585183470
H           -0.69088936938932        1.00078769597386        0.22699398657820
H            0.80149072707932        3.02239024061627       -1.48678609518536
H            0.27761699730855        1.43300823065784       -2.03768407923229
H            1.61053640881505        0.38679738508106       -0.18069772781591
H            2.56544238456128        1.22437862173117       -1.40688076011350
H            2.79441386068030        3.18384958351845        0.08422746615851
H            1.79119576074613        2.39141494945936        1.29823220522033
H            3.47266394001870        0.56440735730908        1.49707018810049
H            4.07515356243604        2.15282641156989        1.96623536479066
H            5.18150744490511        2.37848124710968       -0.27107382365267
H            5.77947409021611        0.99871580015180        0.65298083356317
H            4.65940625697541        0.74388872081962       -0.67976333361675
53
 energy: -54.797752973792 gnorm: 0.002524642976 xtb: 6.6.1 (8d0f1dd)
C            3.05870239509620       -2.43378663763998        0.41668649244095
C            2.24745693251803       -3.37576817163169       -0.46686531580778
C            0.91411813981556       -2.77966055361991       -0.92082452866665
C           -0.09885599828592       -2.62530898306565        0.21149746916944
C           -1.43460430700613       -2.08763838306954       -0.29741744055279
C           -2.44549942334306       -1.92403668926196        0.83553287138282
C           -3.79922474815828       -1.37009137777543        0.38195695864020
C           -3.74714968332849        0.03813396759033       -0.21601821253178
C           -3.36606289777711        1.11363238283057        0.80003181022270
C           -3.06408243315410        2.47288240569476        0.16291339232045
C           -1.87290472269112        2.48114164098385       -0.80025674419254
C           -0.56921275042276        2.01345108523196       -0.15795107133629
C            0.58662733406402        2.00634718701875       -1.15601738104244
C            1.85792252601054        1.37086399703025       -0.58938828142221
C            2.51592523006980        2.21526017195092        0.49953424941519
C            3.74851172809657        1.55069546050694        1.11572652358914
C            4.91378744959521        1.40992510192347        0.14184732962144
H            4.00869620903044       -2.89129536652891        0.68301608772978
H            3.26243780607931       -1.50402677392129       -0.10889705515392
H            2.52580058194715       -2.20375367364291        1.33576751698011
H            2.05878628737042       -4.30687065269644        0.07193711831411
H            2.83946062824377       -3.61972294211131       -1.35178720946144
H            0.48204180357312       -3.43040117215715       -1.68499797284717
H            1.09287624545518       -1.80565960727765       -1.38246646967488
H            0.29029811846936       -1.94054350583872        0.96736178151771
H           -0.25452373210200       -3.59394029920407        0.69226130890333
H           -1.25664004552610       -1.12719335955643       -0.78264051652212
H           -1.83985001659541       -2.76818301943151       -1.04977822511022
H           -2.61406732073546       -2.90110737885796        1.29498511729465
H           -2.01922248761792       -1.27876529860884        1.60582677216970
H           -4.21580344598032       -2.04802728917434       -0.36690599552470
H           -4.47757787343256       -1.36668173937466        1.23841062271862
H           -3.04048136906915        0.04201742120794       -1.04417580092783
H           -4.72980639574463        0.27760845642831       -0.62907999774590
H           -2.49807412028744        0.79247930651364        1.37428639659891
H           -4.18937383326737        1.23882824248811        1.50754546415066
H           -2.86713347627670        3.18958209477793        0.96398812265547
H           -3.94900217697609        2.81674925610674       -0.37768317883054
H           -2.09269352496940        1.85567310978365       -1.66749700055423
H           -1.73872160725253        3.50096600430786       -1.16914624658657
H           -0.33574647067200        2.66711887990681        0.68372479380612
H           -0.69111115940345        1.00082305147415        0.22733169002190
H            0.80159785305188        3.02622060565586       -1.48261368682543
H            0.27817708321986        1.43821350958299       -2.03795268357625
H            1.61108715689291        0.38863486059168       -0.18052500503073
H            2.56528452835795        1.22559145665524       -1.40765727992358
H            2.79806533671497        3.18489332062712        0.08276370532161
H            1.79359458270317        2.39491478529902        1.29746764683523
H            3.47332512464379        0.56435992284841        1.49528437442843
H            4.07629587939463        2.15177494139109        1.96700179559157
H            5.18282562685030        2.37939756016986       -0.27161615741032
H            5.78196827520362        1.00089652098319        0.65327071189117
H            4.66232515760773        0.74399316688497       -0.67937366647312
53
 energy: -54.797791678526 gnorm: 0.001642796116 xtb: 6.6.1 (8d0f1dd)
C            3.06238520551661       -2.44398193073755        0.41406365926999
C            2.24675095974482       -3.38395811811445       -0.46538740823120
C            0.91570589286214       -2.78382433387036       -0.91995532842386
C           -0.09983482930620       -2.62973399807494        0.21042017301792
C           -1.43603429493993       -2.09133846375004       -0.29694401352938
C           -2.44645076015047       -1.92347599596694        0.83627566114036
C           -3.80079232668462       -1.37065519456661        0.38438181698362
C           -3.75244800962966        0.03592889864353       -0.21669294073644
C           -3.37554484144243        1.11558454150328        0.79681524098477
C           -3.07036654958449        2.47270451352260        0.15797004288202
C           -1.87459700277027        2.48140109618349       -0.79852942682409
C           -0.57112946022426        2.01531006173559       -0.15410021941969
C            0.58757517648339        2.01681637176066       -1.14937522423806
C            1.85932824172228        1.37884736628514       -0.58864727025003
C            2.52459309485161        2.22117906542258        0.49762064051203
C            3.75412484400339        1.55211531292335        1.11326800940861
C            4.92033292098778        1.41346656696083        0.14217560466924
H            4.01497614963770       -2.90011553093629        0.67521711879148
H            3.26341986975243       -1.51275681413932       -0.11084585461212
H            2.53471411534797       -2.21521980223414        1.33678854691310
H            2.05551544122383       -4.31397829036758        0.07559154771057
H            2.83709782866893       -3.63410072536258       -1.35072271829503
H            0.48435247327516       -3.43109580854720       -1.68842960524880
H            1.09886761092670       -1.80858572998808       -1.37858641113225
H            0.29030720133731       -1.94675309930072        0.96824410944362
H           -0.25641844400263       -3.59967781045662        0.68974545005923
H           -1.25928129834193       -1.13158647584454       -0.78518921275689
H           -1.84314096159377       -2.77396315664356       -1.04743400781010
H           -2.61481815624042       -2.89935766291627        1.30032367751221
H           -2.01956248967751       -1.27545505877152        1.60460357447086
H           -4.22122528686042       -2.05092710163663       -0.36120764121756
H           -4.47769504058537       -1.36575637830967        1.24298115631110
H           -3.04521117605746        0.04033833004105       -1.04463186852106
H           -4.73601977874809        0.27143765398927       -0.63181145053506
H           -2.51030372090688        0.79567088473986        1.37620640838370
H           -4.20233197914567        1.24319876364142        1.50084623942711
H           -2.88113651460897        3.19259302584749        0.95902321788986
H           -3.95298139871487        2.81509356647742       -0.38892731729351
H           -2.09111561747469        1.85521549363796       -1.66667311247742
H           -1.74040608736509        3.50169240124347       -1.16853593355398
H           -0.34058032406172        2.66642156665516        0.69128802327292
H           -0.69209445626790        1.00058988660375        0.22751061858982
H            0.80164130101081        3.04050898563877       -1.46649728135405
H            0.28093232062070        1.45714568892342       -2.03813786197381
H            1.61318126971941        0.39607294215887       -0.17911364770219
H            2.56385560558758        1.23142094394162       -1.41012873565744
H            2.81199561095139        3.18853714715956        0.07767473577942
H            1.80317420946793        2.40809192777532        1.29557155737491
H            3.47617258538741        0.56441233583317        1.48878100800806
H            4.08071029165832        2.14851246625803        1.96921253255431
H            5.18729596412458        2.38301218889232       -0.27338841974495
H            5.79071478639475        1.00864693219233        0.65405639283250
H            4.67236983412074        0.74493755394431       -0.67833885265437
53
 energy: -54.797804797555 gnorm: 0.001825394437 xtb: 6.6.1 (8d0f1dd)
C            3.06377624638434       -2.45005131415511        0.41265922528567
C            2.24552476156142       -3.38916523141005       -0.46491463612794
C            0.91570959810009       -2.78631588976361       -0.92006731466387
C           -0.10053271388308       -2.63223697218553        0.20996757314418
C           -1.43688298430297       -2.09296238694429       -0.29641131994361
C           -2.44647022694611       -1.92221678221422        0.83745168440571