53
 energy: -54.797855407584 gnorm: 0.000360532502 xtb: 6.6.1 (8d0f1dd)
C            3.06011060259630       -2.49230439431108        0.40162654173941
C            2.23244860203550       -3.42618112262625       -0.47360385121501
C            0.90471182837897       -2.81341819705791       -0.92050710684967
C           -0.10223829303874       -2.65130837111666        0.21636831316677
C           -1.43632670077230       -2.10425948378251       -0.28608974125038
C           -2.43856164859366       -1.91451943954925        0.85067301565478
C           -3.79413436809937       -1.37177176495194        0.39062542586745
C           -3.74278613852257        0.02845570321963       -0.22456724326925
C           -3.38120325780861        1.11671877903790        0.78491543185476
C           -3.08411277426539        2.47222225549545        0.13963988465752
C           -1.87948911655319        2.48358978570743       -0.80585194846566
C           -0.57992547616046        2.01989771098483       -0.15121022147221
C            0.59105423029070        2.05978992498894       -1.13131289888270
C            1.86291585756637        1.41654547661417       -0.57596577090107
C            2.53615221901619        2.25318785343693        0.50986157834229
C            3.76541099311783        1.57410048659288        1.11582429962138
C            4.92484268591023        1.43394001665275        0.13616896487412
H            4.01170837967273       -2.95476657581123        0.65442761553778
H            3.26197235165899       -1.56093935358405       -0.12280034475668
H            2.54042229474897       -2.26265623347735        1.32850018307130
H            2.03527365903635       -4.35380004555751        0.06895318147117
H            2.81551878197527       -3.68170877075906       -1.36187083676020
H            0.46256811243698       -3.45546463759060       -1.68683739414730
H            1.09437731006315       -1.83930987414150       -1.37848449047214
H            0.29706356281405       -1.96975743680570        0.97033937006484
H           -0.26290791128268       -3.61925368038405        0.69770193105414
H           -1.25244030158559       -1.15116950799350       -0.78437290994872
H           -1.85565274785141       -2.78929319163224       -1.02720268562126
H           -2.60311570700929       -2.88013073583201        1.33624033844148
H           -2.00838760676669       -1.24915205325538        1.60177196229642
H           -4.20986713200428       -2.06113466841243       -0.34883570853354
H           -4.47369324269683       -1.35825243068581        1.24669375048567
H           -3.02417210215876        0.02681832130717       -1.04249127680018
H           -4.72089252497270        0.25837548728150       -0.65476095916615
H           -2.51546254704516        0.80847919299297        1.36965234157632
H           -4.21266440264523        1.23978740547010        1.48392617440043
H           -2.90876683524132        3.19937739863756        0.93686899871659
H           -3.96439273041640        2.80186871198045       -0.41824822914879
H           -2.08697337387352        1.85627172054765       -1.67525101034880
H           -1.74466927661148        3.50389808728789       -1.17475132285652
H           -0.36959780088538        2.65350868270310        0.71232376009139
H           -0.69323713184869        0.99497402008448        0.20405093089807
H            0.79970217871725        3.09379739980360       -1.41592539847309
H            0.29904515921324        1.52368663135399       -2.03890831883999
H            1.61642345686985        0.43286682809921       -0.16897661978470
H            2.56395448094602        1.27067458755456       -1.40020404036777
H            2.82784176096837        3.21949244754075        0.09099846861858
H            1.81963710994069        2.44254430657074        1.31145959788915
H            3.48409629907810        0.58584429724804        1.48699395785686
H            4.10104541382635        2.16389349711011        1.97250598075909
H            5.19903072850935        2.40499355058528       -0.27087379120962
H            5.79385993045869        1.01498257659068        0.63873563408405
H            4.66505031154275        0.77654400275646       -0.68953877987542
