41
 energy: -42.140107589148 gnorm: 0.032408840742 xtb: 6.6.1 (8d0f1dd)
C            7.03932900000000       -0.63050300000000        0.11429000000000
C            5.59073200000000       -0.78566500000000       -0.32196700000000
C            4.69776000000000        0.35082600000000        0.17832800000000
C            3.24052500000000        0.20596500000000       -0.26137200000000
C            2.35674600000000        1.35824100000000        0.21797800000000
C            0.91032100000000        1.26824800000000       -0.27761300000000
C            0.13048600000000        0.09467900000000        0.31624200000000
C           -1.31439300000000        0.03006000000000       -0.17931300000000
C           -2.09808100000000       -1.13909300000000        0.41853700000000
C           -3.51716900000000       -1.27582600000000       -0.14097200000000
C           -4.43455300000000       -0.10569400000000        0.21611800000000
C           -5.85634800000000       -0.27897600000000       -0.32111400000000
C           -6.76595000000000        0.88762800000000        0.03071200000000
H            7.67057200000000       -1.44214500000000       -0.25639100000000
H            7.12516600000000       -0.61908400000000        1.20301300000000
H            7.46327800000000        0.30764100000000       -0.25071900000000
H            5.52959500000000       -0.83921100000000       -1.41758100000000
H            5.18943500000000       -1.74571300000000        0.03048400000000
H            5.09476500000000        1.31128900000000       -0.17360400000000
H            4.74925300000000        0.40679500000000        1.27288300000000
H            2.84385500000000       -0.74918700000000        0.10255200000000
H            3.19218300000000        0.13721000000000       -1.35524200000000
H            2.80489300000000        2.30715900000000       -0.10566500000000
H            2.36819300000000        1.39736900000000        1.31430600000000
H            0.90274500000000        1.19490000000000       -1.37226500000000
H            0.37661900000000        2.20091400000000       -0.05095900000000
H            0.14253300000000        0.16075700000000        1.41124100000000
H            0.63690600000000       -0.84898400000000        0.08165400000000
H           -1.81948400000000        0.97626800000000        0.04841000000000
H           -1.32429800000000       -0.04242300000000       -1.27400600000000
H           -2.14138600000000       -1.03030000000000        1.50945400000000
H           -1.53761800000000       -2.06778600000000        0.24709700000000
H           -3.47108500000000       -1.38241300000000       -1.23204000000000
H           -3.97341600000000       -2.20812200000000        0.21808700000000
H           -4.01407900000000        0.83144700000000       -0.16743100000000
H           -4.46446500000000        0.02061700000000        1.30549700000000
H           -6.27784200000000       -1.21723300000000        0.06379700000000
H           -5.81766000000000       -0.41224700000000       -1.41066300000000
H           -6.84880800000000        1.01065000000000        1.11223600000000
H           -6.37815000000000        1.82630100000000       -0.36951000000000
H           -7.77628300000000        0.75518000000000       -0.36372400000000
41
 energy: -42.142469595928 gnorm: 0.014420538622 xtb: 6.6.1 (8d0f1dd)
C            7.03076197332280       -0.62460449264195        0.11607230902943
C            5.58299101842817       -0.78328657782158       -0.32280366581145
C            4.69577349130139        0.35537005679769        0.17949461426181
C            3.24154559540610        0.20137435996102       -0.26323003388767
C            2.35580111058316        1.34930084415989        0.22028942428059
C            0.91207575124211        1.25826037055177       -0.27903645316287
C            0.13015701951461        0.08840700154623        0.31795326943635
C           -1.31298881697739        0.03577944549181       -0.18153840076340
C           -2.09897860110584       -1.12932692788075        0.41961172674361
C           -3.51484345002327       -1.26694372781119       -0.14401609755319
C           -4.43274877460440       -0.10033344666424        0.21792911647403
C           -5.85071279762676       -0.28412643574779       -0.32151229799498
C           -6.75693872850624        0.88503921015023        0.03322985441974
H            7.64702147043609       -1.44084997890142       -0.26035712767102
H            7.10935345880146       -0.61836487039005        1.20312206208107
H            7.44898476914094        0.31069062554248       -0.25580431562236
H            5.53446395873038       -0.82324907350612       -1.41668734744933
H            5.19120674144581       -1.73801663510383        0.04539244423529
H            5.08983850922868        1.30901220742788       -0.18806625251973
H            4.74122263554001        0.39438152920728        1.27313197400294
H            2.85249060411650       -0.74789519131805        0.11624826408790
H            3.19924985467574        0.14942067932015       -1.35649194695605
H            2.79182709036997        2.29504066249548       -0.12101229798936
H            2.36091361083625        1.37816993405887        1.31503842060160
H            0.91168320173906        1.17613024829461       -1.37118016822918
H            0.39040145353679        2.19048961127288       -0.03429337200404
H            0.13440018554498        0.17080493908114        1.41010127875598
H            0.62887907005125       -0.85220245451379        0.06709030363116
H           -1.81018587939120        0.97898367846637        0.06296438978967
H           -1.31527272702301       -0.05297020692907       -1.27325799368238
H           -2.15004025825931       -1.01172400420797        1.50730384171601
H           -1.55009226120823       -2.05866756897959        0.22961375196764
H           -3.46315556455607       -1.36350542934259       -1.23382680315150
H           -3.96065031356512       -2.19457832848374        0.23274136360085
H           -4.01961326604682        0.82992901822822       -0.18239275694391
H           -4.46968515742334        0.00837593858154        1.30714235042401
H           -6.27460559286988       -1.21184764738349        0.07845472933688
H           -5.81034371583016       -0.39892226349575       -1.41037544021529
H           -6.83876059909095        0.99963803179113        1.11391465220329
H           -6.36637438705250        1.81745371367785       -0.37411444592376
H           -7.76022968283173        0.73890215501845       -0.36607792354838
41
 energy: -42.142855640902 gnorm: 0.002303649924 xtb: 6.6.1 (8d0f1dd)
C            7.02592153982632       -0.62065793155371        0.11726820190153
C            5.57700929240761       -0.78129392710303       -0.32355279172570
C            4.69293803779582        0.35819300564567        0.17986550121636
C            3.24067856033230        0.19645875366881       -0.26439413642723
C            2.35509099843947        1.34276011630098        0.22159949794043
C            0.91243512978553        1.25093731933027       -0.27949448886534
C            0.13064209972748        0.08220878221925        0.31905748737928
C           -1.31163965646104        0.04126644298532       -0.18303451531137
C           -2.09760566665003       -1.12252731246226        0.41979890701574
C           -3.51225684232097       -1.26040381702855       -0.14561020241931
C           -4.43055928651174       -0.09561877739860        0.21828769692780
C           -5.84622598957130       -0.28775163586253       -0.32143064101116
C           -6.75310425806884        0.88302967745995        0.03453600264745
H            7.63423983179040       -1.43943181571136       -0.26146958606488
H            7.09846071560917       -0.61501399786342        1.20298107023491
H            7.43922248141746        0.31366015463623       -0.25731521425181
H            5.53354680758813       -0.81488921673883       -1.41513922418393
H            5.18896551690612       -1.73173385866405        0.05154456832147
H            5.08447639703520        1.30776197488181       -0.19442694276188
H            4.73566141765429        0.39054761567612        1.27161129097366
H            2.85869948825369       -0.75093521704858        0.12032279347248
H            3.20196189159835        0.15337423574636       -1.35607275483177
H            2.78403753487618        2.28670392964658       -0.12652872414681
H            2.35689419755379        1.36471483711365        1.31435809761866
H            0.91626331822970        1.16299658122220       -1.36906000488433
H            0.39714049791651        2.18215798765955       -0.02745992245988
H            0.13090997812701        0.17199264965128        1.40848134501482
H            0.62213783577483       -0.85779649323725        0.06154209905496
H           -1.80149338221595        0.98390493368366        0.06818520285988
H           -1.31014758508921       -0.05497413591863       -1.27196101468286
H           -2.15348286449807       -0.99881041068203        1.50436884810365
H           -1.55485603276958       -2.05139549394145        0.22269187997178
H           -3.45741858942914       -1.35009397127416       -1.23368131777002
H           -3.95187443585917       -2.18564835708894        0.23775648880055
H           -4.02438508745726        0.83226651287271       -0.18820322615134
H           -4.47076463955516        0.00434070877435        1.30602342460524
H           -6.26888063382652       -1.21000305041651        0.08534706516076
H           -5.80473543358657       -0.39485794309956       -1.40834943012195
H           -6.83101774621582        0.99332584794802        1.11431820201978
H           -6.35923690280664        1.81099137153400       -0.37554885030616
H           -7.75282653575236        0.72978292443666       -0.36644768286346
41
 energy: -42.142880618713 gnorm: 0.000937134537 xtb: 6.6.1 (8d0f1dd)
C            7.02472398661531       -0.61945302558103        0.11770661101654
C            5.57537039964433       -0.78079452373159       -0.32382884806818
C            4.69179736489658        0.35878100092179        0.17960742854506
C            3.24006844072560        0.19467360356462       -0.26508144728799
C            2.35486878085758        1.34028137617614        0.22234126917843
C            0.91259155535158        1.24835103728010       -0.27974040015526
C            0.13103159937177        0.08013517222868        0.31931486591216
C           -1.31093527980373        0.04293039406557       -0.18346337714569
C           -2.09713549798887       -1.11992129894343        0.42009962806543
C           -3.51131459405560       -1.25795667645770       -0.14658625449146
C           -4.42973304833787       -0.09374363129091        0.21850310945732
C           -5.84487623215109       -0.28893079434420       -0.32126673680286
C           -6.75281732760488        0.88196339368024        0.03482012775965
H            7.63275480744842       -1.43831130507620       -0.26038717195633
H            7.09543186783421       -0.61274600242552        1.20328781738766
H            7.43670574026207        0.31501973945174       -0.25722395824851
H            5.53190025563682       -0.81401308172305       -1.41496068279160
H            5.18714626196481       -1.73049378997925        0.05158014184645
H            5.08195724113243        1.30819735225356       -0.19524094496727
H            4.73410585067545        0.39182639441765        1.27093656483284
H            2.86010385745900       -0.75329264492917        0.11910723238094
H            3.20151549017021        0.15225131053738       -1.35636252189372
H            2.78348539568257        2.28403331444052       -0.12496542746099
H            2.35619588941664        1.36042942616314        1.31473697186396
H            0.91706224629288        1.15902243283097       -1.36878644848137
H            0.39702070586223        2.17889092560236       -0.02819408289209
H            0.13124089986905        0.16928157232908        1.40833008649310
H            0.61990726567699       -0.86058304526884        0.06120084996808
H           -1.79801101424573        0.98639053659067        0.06815454985531
H           -1.30932582332617       -0.05285820764993       -1.27198151892281
H           -2.15361222261535       -0.99468687864344        1.50405135769607
H           -1.55422397265572       -2.04820241190811        0.22371386200918
H           -3.45557041772467       -1.34591204467468       -1.23438262494420
H           -3.95045340599686       -2.18317957617473        0.23587604250985
H           -4.02562412553539        0.83460564537965       -0.18802043762884
H           -4.46966256351811        0.00588619387619        1.30586867301589
H           -6.26585509088210       -1.21096524185707        0.08644731666489
H           -5.80329592164603       -0.39641488571076       -1.40768789320194
H           -6.82899984760611        0.99196849290931        1.11450070112525
H           -6.35840562238686        1.80918778604491       -0.37568887409978
H           -7.75231189476544        0.72789096562536       -0.36557055614316
41
 energy: -42.142900185780 gnorm: 0.002142123725 xtb: 6.6.1 (8d0f1dd)
C            7.02263102445154       -0.61675130930135        0.11888899993511
C            5.57328458957626       -0.77996781985708       -0.32431419873435
C            4.68967374625172        0.35925828238918        0.17817306985365
C            3.23880193877089        0.19098238533485       -0.26644590356139
C            2.35434363035578        1.33491650793726        0.22403667581188
C            0.91338326546263        1.24302963216793       -0.28035795884363
C            0.13211964193139        0.07587325473282        0.31899672903933
C           -1.30955745448623        0.04637156782352       -0.18352888776314
C           -2.09661880407700       -1.11437173671786        0.42094205340789
C           -3.50922124723449       -1.25245527382300       -0.14886636218226
C           -4.42833174420994       -0.08980097770155        0.21831559155974
C           -5.84288541628246       -0.29082651076903       -0.32023993610576
C           -6.75331025453445        0.87922836736189        0.03552322914949
H            7.63208817125597       -1.43529647409171       -0.25650907611994
H            7.08983761471927       -0.60710294504894        1.20451332043126
H            7.43242159823913        0.31813136791402       -0.25695004887776
H            5.52938340012872       -0.81350088842879       -1.41510810077732
H            5.18420855931820       -1.72899079522484        0.05101250431461
H            5.07688291983118        1.30919017244244       -0.19754580369526
H            4.73132552474855        0.39511759240523        1.26917663595247
H            2.86213050941386       -0.75892011792245        0.11569214821361
H            3.19974873175565        0.14930339836335       -1.35742625324459
H            2.78397486960320        2.27912877494649       -0.11908825793509
H            2.35447052094320        1.35073109232177        1.31620298396644
H            0.91941750665942        1.15098593714220       -1.36884406678416
H            0.39573743161845        2.17259225461171       -0.03171950578980
H            0.13325989261176        0.16223532602969        1.40788733190469
H            0.61608776346777       -0.86682524779521        0.05978666457754
H           -1.79116776629315        0.99229522059403        0.06830250144579
H           -1.30848556995563       -0.04745348573284       -1.27188809697053
H           -2.15477786610360       -0.98579108530581        1.50408731939826
H           -1.55214135880578       -2.04199324802225        0.22839758189208
H           -3.45107228970840       -1.33631782002880       -1.23658547339161
H           -3.94893501271127       -2.17862831346800        0.22921160618923
H           -4.02786117705344        0.84023940144488       -0.18763154809961
H           -4.46676419573375        0.01016951604598        1.30543140349618
H           -6.25969582374048       -1.21357396243808        0.08922960336736
H           -5.80134107191347       -0.40071590905548       -1.40610968734567
H           -6.82610245919926        0.98956924158149        1.11521943487835
H           -6.35907974479168        1.80569064066068       -0.37631436895042
H           -7.75304159428003        0.72378298648168       -0.36278885361268
41
 energy: -42.142906328931 gnorm: 0.001182111410 xtb: 6.6.1 (8d0f1dd)
C            7.02275008480186       -0.61619951123019        0.11926456849689
C            5.57397544431899       -0.78008490668483       -0.32434837946798
C            4.68980588848192        0.35887534717676        0.17754732950722
C            3.23890639242969        0.19063263735947       -0.26661340235126
C            2.35432541340848        1.33418909013892        0.22442081946384
C            0.91388351818374        1.24257742177587       -0.28068349029156
C            0.13232039669526        0.07560713068939        0.31845240272553
C           -1.30955543225608        0.04661144818978       -0.18309576902901
C           -2.09714763902911       -1.11368795401776        0.42135125519207
C           -3.50908517844072       -1.25163991882072       -0.14944845744926
C           -4.42852417801691       -0.08938917556522        0.21796313807116
C           -5.84325837444552       -0.29074682465594       -0.31978250937268
C           -6.75394429940521        0.87867900890182        0.03581282040270
H            7.63303160968061       -1.43465288670486       -0.25524573150502
H            7.08975518412259       -0.60596652985884        1.20497855163632
H            7.43265798604832        0.31859461049743       -0.25691861041548
H            5.53035468629347       -0.81404741832451       -1.41533255112643
H            5.18500759218060       -1.72937402417245        0.05098404027899
H            5.07683827042336        1.30892825314833       -0.19856175764009
H            4.73157835351335        0.39525440391032        1.26870771928453
H            2.86210089959765       -0.75948748137345        0.11533039146078
H            3.19937599000883        0.14918640841900       -1.35777700232672
H            2.78449083234148        2.27887849817570       -0.11737785022458
H            2.35394828324081        1.34906353044567        1.31676459674697
H            0.92043959733257        1.15039288933896       -1.36932078884483
H            0.39587099630387        2.17237235627915       -0.03273938176748
H            0.13422863142606        0.16133208613534        1.40759786128711
H            0.61608226299076       -0.86720303940488        0.05854920727546
H           -1.79082625259911        0.99281061997804        0.06908862857138
H           -1.30910894278343       -0.04689873144838       -1.27168207014797
H           -2.15603395721669       -0.98466091142257        1.50457417582959
H           -1.55243179125992       -2.04164568608579        0.22988759235984
H           -3.45018477021374       -1.33467726953660       -1.23734288298673
H           -3.94928401231037       -2.17833663132289        0.22734110207732
H           -4.02821577355592        0.84082673796758       -0.18818690431090
H           -4.46643327536295        0.01075049701897        1.30527138121119
H           -6.25950668417891       -1.21375594606228        0.09016985496690
H           -5.80209259097504       -0.40125225213454       -1.40579354139705
H           -6.82664841800433        0.98959964721642        1.11554269746797
H           -6.36072542093371        1.80541373815792       -0.37662908332012
H           -7.75389932283660        0.72266973790582       -0.36195497033863
41
 energy: -42.142917670319 gnorm: 0.002476146892 xtb: 6.6.1 (8d0f1dd)
C            7.02415657944672       -0.61256039367814        0.12180306407655
C            5.57819452586121       -0.78094046406687       -0.32463379858051
C            4.69103100100757        0.35688239195171        0.17387537553246
C            3.23999679677059        0.18797126776953       -0.26782231779168
C            2.35464873942073        1.32935873031158        0.22681326991110
C            0.91685460253419        1.23968263234316       -0.28279852653333
C            0.13356646022718        0.07348563607604        0.31507826646611
C           -1.30977509348088        0.04863921041105       -0.18062100380196
C           -2.10030446978556       -1.10937337081057        0.42387286171748
C           -3.50862836946826       -1.24639111482596       -0.15322816046909
C           -4.43000965611197       -0.08639300708036        0.21570155961426
C           -5.84586482360967       -0.29081421081387       -0.31707455540425
C           -6.75850274024302        0.87541202523893        0.03781646908939
H            7.63859287961539       -1.43077657511228       -0.24747483980366
H            7.08920112295574       -0.59839110048348        1.20790131237553
H            7.43413222969374        0.32165095021514       -0.25663896052849
H            5.53678457733670       -0.81720667895389       -1.41626641748684
H            5.19038737457221       -1.73125455069140        0.05118909524746
H            5.07697167564446        1.30702083801881       -0.20482465401694
H            4.73357096236498        0.39596184639295        1.26549614833709
H            2.86322016171874       -0.76319412303009        0.11310211343446
H            3.19786377678493        0.14857653842024       -1.35959272460670
H            2.78715216015462        2.27656162196105       -0.10740078206388
H            2.35093873576953        1.33807470830342        1.31979264398920
H            0.92679800765067        1.14662475472197       -1.37190254059118
H            0.39773362211144        2.17062898459495       -0.03818682915942
H            0.14016991639260        0.15586092161643        1.40516492018856
H            0.61540086995689       -0.86968821011522        0.05050627061981
H           -1.78843963582243        0.99612923559486        0.07421496983290
H           -1.31331430147320       -0.04346732944596       -1.26998940122644
H           -2.16413495315732       -0.97730816788882        1.50703407590365
H           -1.55493919394089       -2.03907479358433        0.23844356057378
H           -3.44491043596081       -1.32411074493666       -1.24176573075729
H           -3.95092852464067       -2.17583008519265        0.21630207859599
H           -4.03160714734155        0.84454068293209       -0.19209621162545
H           -4.46478099153054        0.01431444260254        1.30367182574130
H           -6.25855476309262       -1.21471918805370        0.09616838367053
H           -5.80735085094957       -0.40439712576312       -1.40349463074315
H           -6.82974039299072        0.98970395576898        1.11760990169078
H           -6.37121677894518        1.80333541642061       -0.37850150976570
H           -7.75954165544593        0.71501344286136       -0.35647957165247
41
 energy: -42.142921536748 gnorm: 0.001622346249 xtb: 6.6.1 (8d0f1dd)
C            7.02486942539341       -0.61229148452420        0.12208215087001
C            5.57872631856935       -0.78106100637893       -0.32461338039256
C            4.69149948381527        0.35689200176587        0.17376220826959
C            3.24044187187351        0.18762806577843       -0.26801343842406
C            2.35500581544480        1.32893413783472        0.22690119501483
C            0.91703343224962        1.23953379584993       -0.28295399446209
C            0.13360445081631        0.07324790823479        0.31483649859150
C           -1.30994178416719        0.04895026314423       -0.18059770028663
C           -2.10058225351740       -1.10908524112747        0.42397193067663
C           -3.50897701632230       -1.24604844845281       -0.15354834427626
C           -4.43045083128565       -0.08605875628391        0.21548751035071
C           -5.84641775951777       -0.29104871543044       -0.31697521307154
C           -6.75938362045258        0.87526427100250        0.03808637205134
H            7.63923086658361       -1.43059805596305       -0.24689782689151
H            7.08949897736136       -0.59767606008111        1.20813284196756
H            7.43456580856021        0.32186694332180       -0.25659449782721
H            5.53758038515229       -0.81742427659148       -1.41608748394233
H            5.19114669605196       -1.73119031469466        0.05142950663977
H            5.07737522660655        1.30680977248208       -0.20510977382710
H            4.73407251989444        0.39604708710173        1.26522633052415
H            2.86405024874149       -0.76354224675429        0.11286825796868
H            3.19834098864576        0.14845861455027       -1.35962121235094
H            2.78731697591272        2.27606452339601       -0.10713153112694
H            2.35109254062430        1.33726172115310        1.31972650457470
H            0.92709582186931        1.14665616881768       -1.37192393897540
H            0.39831700249800        2.17039362936332       -0.03798961221869
H            0.14049671162100        0.15543385540771        1.40475191287841
H            0.61501452255488       -0.86983477068310        0.04979867935957
H           -1.78822942530791        0.99634770206376        0.07464516000457
H           -1.31384185019674       -0.04305027608608       -1.26979833078870
H           -2.16475272851889       -0.97690156243235        1.50694088608983
H           -1.55544663740303       -2.03869081398259        0.23855825957288
H           -3.44497391099874       -1.32354427032950       -1.24193723557669
H           -3.95107667065016       -2.17540320761564        0.21589999989109
H           -4.03255610384551        0.84479700391300       -0.19260507301477
H           -4.46500627918893        0.01471267876786        1.30329284126281
H           -6.25881866703342       -1.21475196531388        0.09658553669332
H           -5.80827542993562       -0.40461684283788       -1.40325119483425
H           -6.83000895799641        0.98975398705640        1.11783274886664
H           -6.37239307766658        1.80303177548594       -0.37862062265647
H           -7.76042108683532        0.71427140907221       -0.35578192717451
41
 energy: -42.142929623448 gnorm: 0.001913144749 xtb: 6.6.1 (8d0f1dd)
C            7.03040317402804       -0.60965156910760        0.12460586028661
C            5.58397162033119       -0.78190148791364       -0.32420331994843
C            4.69531673843726        0.35641858342339        0.17210983615655
C            3.24406446302012        0.18469219788331       -0.26959044438820
C            2.35766138932416        1.32473451802279        0.22778418570211
C            0.91913357531915        1.23764980300161       -0.28420118272651
C            0.13409402232577        0.07107812606861        0.31223104261553
C           -1.31123648684088        0.05173301435433       -0.17986997254156
C           -2.10346626699394       -1.10588441250400        0.42474894336453
C           -3.51152269171231       -1.24233976317748       -0.15644395848554
C           -4.43424958560959       -0.08308509925894        0.21330423998185
C           -5.85134696463907       -0.29255127471954       -0.31547831316798
C           -6.76681252975493        0.87326149531075        0.04045900312495
H            7.64560462941477       -1.42850218347383       -0.24092154304998
H            7.09216145082913       -0.59106248067645        1.21051482256887
H            7.43855336731837        0.32394146450407       -0.25636378386879
H            5.54479792049742       -0.81981394648027       -1.41503080115553
H            5.19796743379442       -1.73129945493200        0.05336155397601
H            5.08039601310088        1.30529313800796       -0.20842626236364
H            4.73806625265395        0.39710443974925        1.26291433516366
H            2.87004702859391       -0.76708474850907        0.11053938752505
H            3.20166150448511        0.14720321658110       -1.36055348651328
H            2.78961051612602        2.27225086717818       -0.10317304581245
H            2.35190525385047        1.32931023537010        1.32000541569758
H            0.93038842424376        1.14621095932096       -1.37267119431517
H            0.40252622313296        2.16838767039662       -0.03762777787452
H            0.14397079643777        0.15068674905743        1.40159924046395
H            0.61228966833317       -0.87180213745301        0.04302159027702
H           -1.78641234464565        0.99915688190756        0.07869089915798
H           -1.31842486883016       -0.03871021596357       -1.26849016556441
H           -2.17065511434967       -0.97253620932109        1.50675326743046
H           -1.55934948063707       -2.03547313169379        0.24087582798266
H           -3.44479318328557       -1.31752887874961       -1.24423880471379
H           -3.95312571111217       -2.17198503926093        0.21082535702956
H           -4.03994698906302        0.84760778534263       -0.19721624071371
H           -4.46643426519849        0.01875059389844        1.30042808423436
H           -6.26078878333577       -1.21554247634260        0.10097001634917
H           -5.81638927217314       -0.40714046848400       -1.40112828095645
H           -6.83282167196127        0.99005537238259        1.12000829636443
H           -6.38355842195150        1.80045297730572       -0.38012381909859
H           -7.76843483350356        0.70745388895406       -0.34923380819440
41
 energy: -42.142933427473 gnorm: 0.001015522338 xtb: 6.6.1 (8d0f1dd)
C            7.03171375985918       -0.60879582579214        0.12531091680028
C            5.58575568687735       -0.78191184807382       -0.32380086149644
C            4.69631528859833        0.35610021238538        0.17154336104808
C            3.24508991826870        0.18386489094192       -0.26998417748160
C            2.35826112959361        1.32326105875579        0.22791949469213
C            0.91997722529310        1.23673981455951       -0.28432824665160