38
 energy: -38.976902110776 gnorm: 0.031150725903 xtb: 6.6.1 (8d0f1dd)
C            6.59184900000000        0.80491900000000        0.18572900000000
C            5.16711500000000        1.06157200000000       -0.28004500000000
C            4.18693600000000       -0.01236600000000        0.19400000000000
C            2.75219000000000        0.23998700000000       -0.26944900000000
C            1.77456800000000       -0.83647200000000        0.20184000000000
C            0.33860900000000       -0.58170200000000       -0.25707700000000
C           -0.63756100000000       -1.65818300000000        0.21868400000000
C           -2.06852300000000       -1.45717100000000       -0.28845600000000
C           -2.74356600000000       -0.20034300000000        0.26191200000000
C           -4.19456200000000       -0.05539000000000       -0.19772700000000
C           -4.87108400000000        1.20590100000000        0.34150000000000
C           -6.31528000000000        1.33922800000000       -0.11577300000000
H            7.28270300000000        1.57918600000000       -0.15666400000000
H            6.96259200000000       -0.15262400000000       -0.18559200000000
H            6.65130200000000        0.77193200000000        1.27545100000000
H            4.82535700000000        2.04468300000000        0.07101700000000
H            5.13310100000000        1.12511900000000       -1.37607600000000
H            4.21421800000000       -0.07847000000000        1.28883000000000
H            4.52021700000000       -0.99658100000000       -0.15824200000000
H            2.41744400000000        1.22280900000000        0.08543800000000
H            2.72480700000000        0.30889300000000       -1.36421100000000
H            2.10763200000000       -1.81885000000000       -0.15596600000000
H            1.80432200000000       -0.90783600000000        1.29640800000000
H            0.30830800000000       -0.51489500000000       -1.35183700000000
H            0.01335400000000        0.40354000000000        0.09793000000000
H           -0.26371000000000       -2.64170100000000       -0.09618200000000
H           -0.63801300000000       -1.69104900000000        1.31533800000000
H           -2.68224000000000       -2.33125500000000       -0.03279100000000
H           -2.06754900000000       -1.42016900000000       -1.38495400000000
H           -2.17756000000000        0.69048200000000       -0.03543900000000
H           -2.70364800000000       -0.21087000000000        1.35829600000000
H           -4.23522900000000       -0.05500300000000       -1.29430000000000
H           -4.76796400000000       -0.93988000000000        0.10731000000000
H           -4.29331600000000        2.08789800000000        0.03269700000000
H           -4.81992500000000        1.20415100000000        1.43896400000000
H           -6.91348600000000        0.48619400000000        0.21140400000000
H           -6.38315800000000        1.37960200000000       -1.20501400000000
H           -6.78945000000000        2.24245100000000        0.27610800000000
38
 energy: -38.978994052650 gnorm: 0.014065096466 xtb: 6.6.1 (8d0f1dd)
C            6.58177248607963        0.79962764955554        0.18697249319346
C            5.15786038550512        1.05994457755948       -0.28108096612730
C            4.18303510813873       -0.01655355086500        0.19548542741501
C            2.75034808789770        0.23972843788897       -0.27010839579013
C            1.77532410417802       -0.83826494248992        0.20258714081024
C            0.34196482232801       -0.57613966941626       -0.25873253591572
C           -0.63639134633028       -1.64825326107824        0.22085166218544
C           -2.06504279754388       -1.44799837049614       -0.29011157500582
C           -2.74318926322668       -0.19530593496957        0.26369562558879
C           -4.19291326922706       -0.05997552407039       -0.19942328376935
C           -4.86378629976785        1.20192280971362        0.34228399369055
C           -6.30791647971125        1.33173630801238       -0.11738100651922
H            7.25849830451351        1.57928496177469       -0.16214164588451
H            6.94688375853209       -0.15524247054652       -0.19074117365855
H            6.63461508101100        0.77232140317274        1.27519555668566
H            4.82508092977070        2.03723537103469        0.08567258441485
H            5.13569152452289        1.10913198911311       -1.37533775438115
H            4.20620320694795       -0.06573447940900        1.28937295490746
H            4.51544159046094       -0.99308494105828       -0.17250031203227
H            2.41902370979245        1.21598246789014        0.10005443379436
H            2.72915986491087        0.29314653642023       -1.36394509154559
H            2.10493223338380       -1.81402051926821       -0.17028302014949
H            1.79908746338504       -0.89343877803429        1.29627007359631
H            0.31579279568082       -0.52704666095791       -1.35259920252698
H            0.02299777427415        0.40217344137583        0.11224211593551
H           -0.27422379096185       -2.62772989190571       -0.11150670820427
H           -0.64279179071636       -1.67091866777149        1.31579898679783
H           -2.66673730571605       -2.32221538304751       -0.01670011737356
H           -2.05624295717152       -1.40263267085312       -1.38432048346230
H           -2.18570989950328        0.69200132587559       -0.05005262969499
H           -2.71254624128844       -0.22149553563417        1.35827339040891
H           -4.22473099386749       -0.04426542683197       -1.29417753838913
H           -4.76251121599844       -0.93880487801721        0.12155635337696
H           -4.29618938793919        2.08126986345181        0.01796566804522
H           -4.82775231159072        1.18913604558331        1.43728311246579
H           -6.90000224271537        0.47979797186970        0.21646215241251
H           -6.36734624578176        1.37606514918241       -1.20477171017114
H           -6.76688939225598        2.23635224724667        0.28095242487663
38
 energy: -38.979340810770 gnorm: 0.002170290246 xtb: 6.6.1 (8d0f1dd)
C            6.57427740684316        0.79589668134377        0.18766932065784
C            5.14913059442954        1.05825397493833       -0.28198966100898
C            4.17862666653050       -0.02042348797289        0.19643711154569
C            2.74750825567522        0.23924470228194       -0.27099122920230
C            1.77504015570464       -0.84013845623170        0.20343894572721
C            0.34409107175884       -0.56965719765684       -0.26004878692824
C           -0.63362106125961       -1.64102429255604        0.22196141497204
C           -2.06148695436801       -1.44121772224191       -0.29099575317743
C           -2.74041792499329       -0.19032202656496        0.26486225317184
C           -4.18980248532810       -0.06318677384421       -0.20011563820799
C           -4.85790694744750        1.19856635332176        0.34319183687659
C           -6.30360952858982        1.32661076998742       -0.11845120756301
H            7.24347253120672        1.57815869070710       -0.16483543761997
H            6.93444180227166       -0.15807516276259       -0.19226656131215
H            6.62193915472480        0.77021085694785        1.27451185493558
H            4.81991575798547        2.03120886220050        0.09154839329215
H            5.13157198323011        1.10068665480591       -1.37395944910585
H            4.19999176990527       -0.06218789799083        1.28850304152759
H            4.51045597967392       -0.99224455008941       -0.17799718513352
H            2.41828729048655        1.21130809632163        0.10567849832232
H            2.72924606049250        0.28577014493420       -1.36302621845099
H            2.10223264139527       -1.81174719403591       -0.17601081244279
H            1.79618035663177       -0.88825068581365        1.29531448172098
H            0.32058268599560       -0.52981489348457       -1.35218875228243
H            0.03148231387532        0.40591925992284        0.11660835587575
H           -0.27794915181235       -2.61815200307043       -0.11695186895621
H           -0.64346426764374       -1.65655876486455        1.31487746272523
H           -2.65600319563205       -2.31541269713165       -0.01060764876504
H           -2.04833141543569       -1.39020058127101       -1.38277148883550
H           -2.19055439951019        0.69681039135371       -0.05458419777134
H           -2.71497018455269       -0.22428742959424        1.35719771791227
H           -4.21793717213339       -0.04138618312539       -1.29262862458985
H           -4.75616720682699       -0.93887251439147        0.12758255094585
H           -4.29496793011535        2.07503851662737        0.01228303153069
H           -4.82807026037056        1.18021476792963        1.43556805685637
H           -6.89061078377152        0.47428738975539        0.21771902278113
H           -6.35707353718879        1.37096029119292       -1.20440593573031
H           -6.75473007183719        2.23175111012197        0.28293410570680
38
 energy: -38.979365672496 gnorm: 0.001036720388 xtb: 6.6.1 (8d0f1dd)
C            6.57153939688518        0.79478108660727        0.18773031064040
C            5.14585339140563        1.05747423757412       -0.28231131745447
C            4.17690054553158       -0.02194307064607        0.19665786949110
C            2.74644808455924        0.23880862105639       -0.27122989736094
C            1.77454790762891       -0.84045830453836        0.20342560963856
C            0.34464816137914       -0.56737642184935       -0.26074068193375
C           -0.63243589120899       -1.63820583565743        0.22254704192832
C           -2.05995562901083       -1.43866499403319       -0.29153194176274
C           -2.73871394790747       -0.18850567383762        0.26553164117582
C           -4.18809038239404       -0.06403210414414       -0.19998521803986
C           -4.85600207701318        1.19748267562451        0.34365687497249
C           -6.30231554470910        1.32478241720099       -0.11874422902743
H            7.24033699301335        1.57689176741922       -0.16482191786098
H            6.93005064040863       -0.15953166047343       -0.19215862406236
H            6.61756722853560        0.76875923693573        1.27436994791765
H            4.81608190930488        2.02953164926102        0.09161147868433
H            5.12780146299390        1.09942911957395       -1.37379374731779
H            4.19770687922315       -0.06377759442834        1.28827987324691
H            4.50820557050419       -0.99337546804662       -0.17793954762226
H            2.41727412722047        1.21030988512098        0.10552414691666
H            2.72804624615338        0.28499342866602       -1.36279746497217
H            2.10067012216663       -1.81167909896298       -0.17644418814051
H            1.79548226150486       -0.88876158918545        1.29480856833308
H            0.32170355360481       -0.52794132230110       -1.35241593636423
H            0.03439012746850        0.40857360527872        0.11560891764443
H           -0.27640353655221       -2.61485808930042       -0.11548960000008
H           -0.64248954475270       -1.65175475334915        1.31505350029507
H           -2.65400539941449       -2.31270943217384       -0.01189824814278
H           -2.04578488652182       -1.38607395345822       -1.38280803481742
H           -2.19097024898250        0.69956092931472       -0.05358424942509
H           -2.71347701447358       -0.22284717758702        1.35740153023601
H           -4.21598109531218       -0.04275989511601       -1.29209281422233
H           -4.75287913681652       -0.94000924643322        0.12814763268751
H           -4.29325241471498        2.07344725628568        0.01268043333771
H           -4.82628666329102        1.17845332095392        1.43554448209145
H           -6.88787480770991        0.47178068850261        0.21738498946722
H           -6.35420208228926        1.36825994407214       -1.20454582264434
H           -6.75333430641729        2.22968281607398        0.28242963246683
38
 energy: -38.979382562129 gnorm: 0.001997174090 xtb: 6.6.1 (8d0f1dd)
C            6.56612532244563        0.79258308319630        0.18778841716049
C            5.14011806128043        1.05562229773584       -0.28265935465208
C            4.17357687440024       -0.02472418320676        0.19667704863712
C            2.74453729135611        0.23766062618435       -0.27174919023816
C            1.77331877310744       -0.84073062514006        0.20275732531854
C            0.34544654684839       -0.56302001001292       -0.26186407684432
C           -0.63033591031640       -1.63253975624135        0.22378847763733
C           -2.05654396756523       -1.43354315819420       -0.29263795997593
C           -2.73495126705903       -0.18497326445722        0.26664190475466
C           -4.18439619580722       -0.06499061062384       -0.19881381402761
C           -4.85323495203507        1.19551364270550        0.34469578153129
C           -6.29988598672478        1.32071414988865       -0.11937416112648
H            7.23588940295068        1.57364088879911       -0.16404921001580
H            6.92189725157605       -0.16270615718249       -0.19174105001522
H            6.60942289479676        0.76571881087527        1.27434837424389
H            4.80832069600005        2.02667878433844        0.09121815914096
H            5.12020361571123        1.09769593821780       -1.37381424629944
H            4.19341607103171       -0.06799110419303        1.28800496144912
H            4.50389715464857       -0.99632692812497       -0.17760958977906
H            2.41526861142387        1.20901811520198        0.10442387490900
H            2.72552700628890        0.28421206522452       -1.36299274138048
H            2.09728627913223       -1.81218250518040       -0.17737688499813
H            1.79408690568155       -0.89064039057349        1.29376730078659
H            0.32302099376407       -0.52346585351813       -1.35323191015650
H            0.03913727274821        0.41462601034591        0.11282134448005
H           -0.27199299676128       -2.60924941442008       -0.11013193313032
H           -0.64089517114001       -1.64179809309816        1.31603342926441
H           -2.65156280655770       -2.30755702548238       -0.01696475807387
H           -2.04001662619483       -1.37748167814359       -1.38343052933517
H           -2.19025559456325        0.70533915579084       -0.05095713636212
H           -2.70898720333458       -0.21932931550169        1.35820582852427
H           -4.21222530060813       -0.04591426129797       -1.29073890353124
H           -4.74598825110455       -0.94258533562597        0.12959417482784
H           -4.29027163545766        2.07135125063077        0.01460667686833
H           -4.82308774735809        1.17593435460578        1.43629536414006
H           -6.88301280524791        0.46610590519932        0.21644346196202
H           -6.34907715600696        1.36223372434715       -1.20523234421534
H           -6.75297545134942        2.22483786693116        0.28031888852130
38
 energy: -38.979387451465 gnorm: 0.000475311117 xtb: 6.6.1 (8d0f1dd)
C            6.56610687155506        0.79223690355915        0.18793089202266
C            5.14076771575716        1.05540082843244       -0.28250336451225
C            4.17373108602302       -0.02465638761633        0.19627409645732
C            2.74476066552357        0.23758538591016       -0.27198632844972
C            1.77324521854291       -0.84043385579479        0.20225275722702
C            0.34527017210828       -0.56315655125555       -0.26173257277585
C           -0.63078898467398       -1.63219014119748        0.22422128816913
C           -2.05625836497598       -1.43313030538494       -0.29294811917969
C           -2.73475227244714       -0.18476707667574        0.26660123137016
C           -4.18421188596990       -0.06444161766893       -0.19809919430202
C           -4.85399648490329        1.19563045605446        0.34496939974589
C           -6.29997090782374        1.31982577347192       -0.11954922803671
H            7.23658482366044        1.57301718084029       -0.16361650640601
H            6.92228928637541       -0.16308384586960       -0.19154877670948
H            6.60977823650906        0.76546539620185        1.27462529943006
H            4.80885597662329        2.02679848602869        0.09133800809086
H            5.12088222029707        1.09789041866923       -1.37396760343555
H            4.19364844637958       -0.06825781606972        1.28789682117047
H            4.50418554120941       -0.99650686413570       -0.17814473966611
H            2.41557350808529        1.20934042018508        0.10418409720830
H            2.72580897035858        0.28440366435139       -1.36354451480473
H            2.09707338660375       -1.81222763416650       -0.17808213824591
H            1.79416641985319       -0.89074946161133        1.29356952921804
H            0.32222925652771       -0.52364394841964       -1.35343394611540
H            0.03852815484913        0.41472007337009        0.11281808274654
H           -0.27202543531932       -2.60957163709744       -0.10843938350159
H           -0.64182237431990       -1.64078306911499        1.31674615371591
H           -2.65209778996989       -2.30742291322436       -0.01861126881715
H           -2.03901946107103       -1.37647834548364       -1.38396773841041
H           -2.18946758067196        0.70546639577309       -0.05111664388568
H           -2.70805941209757       -0.21925363861382        1.35846616680554
H           -4.21234041013006       -0.04556680848318       -1.29030537405975
H           -4.74569092234782       -0.94237647141541        0.13054059826278
H           -4.29124307416684        2.07209602443781        0.01514830158506
H           -4.82415747708945        1.17640665677955        1.43689545956867
H           -6.88322265995778        0.46509803475180        0.21621722807448
H           -6.34922054050797        1.36128555774515       -1.20555518230490
H           -6.75433991839833        2.22376773273698        0.27951821275000
