 Entering Gaussian System
 *********************************************
 Gaussian 98:
 frequency output generated by the xtb code
 *********************************************
                         Standard orientation:
 --------------------------------------------------------------------
  Center     Atomic     Atomic              Coordinates (Angstroms)
  Number     Number      Type              X           Y           Z
 --------------------------------------------------------------------
    1          6             0        5.523310   -6.470587   -1.420508
    2          6             0        4.196649   -7.205980   -1.572308
    3          6             0        3.459187   -7.399509   -0.245956
    4          6             0        3.070203   -6.105507    0.471041
    5          6             0        2.084887   -5.246066   -0.317204
    6          6             0        1.653115   -4.010583    0.469290
    7          6             0        0.685209   -3.136704   -0.324705
    8          6             0        0.309691   -1.861992    0.426799
    9          6             0       -0.649156   -0.986164   -0.375931
   10          6             0       -0.976676    0.320231    0.342805
   11          6             0       -1.932111    1.195011   -0.465431
   12          6             0       -2.218203    2.525221    0.227457
   13          6             0       -3.171147    3.396922   -0.587409
   14          6             0       -3.523555    4.717682    0.098311
   15          6             0       -2.351098    5.693227    0.176335
   16          6             0       -2.768211    7.035110    0.773541
   17          6             0       -1.600848    8.015454    0.858437
   18          6             0       -2.024327    9.350764    1.458208
   19          1             0        6.143975   -6.957468   -0.671264
   20          1             0        6.063828   -6.468057   -2.364504
   21          1             0        5.365962   -5.438145   -1.119843
   22          1             0        4.387524   -8.193492   -2.000139
   23          1             0        3.559447   -6.666675   -2.274956
   24          1             0        2.553465   -7.981829   -0.433948
   25          1             0        4.094882   -7.986737    0.421876
   26          1             0        3.965802   -5.521776    0.689714
   27          1             0        2.615131   -6.370385    1.429107
   28          1             0        1.204309   -5.842770   -0.567339
   29          1             0        2.543521   -4.922265   -1.252962
   30          1             0        2.537440   -3.423182    0.728748
   31          1             0        1.178746   -4.320159    1.403589
   32          1             0        1.144777   -2.867076   -1.278812
   33          1             0       -0.219866   -3.707440   -0.545539
   34          1             0        1.217332   -1.294425    0.646108
   35          1             0       -0.152089   -2.125689    1.381145
   36          1             0       -1.573160   -1.538383   -0.562671
   37          1             0       -0.200428   -0.758406   -1.345883
   38          1             0       -1.423833    0.097541    1.314445
   39          1             0       -0.051024    0.871558    0.525061
   40          1             0       -1.497049    1.388957   -1.448864
   41          1             0       -2.870208    0.656932   -0.621326
   42          1             0       -2.656071    2.334073    1.210066
   43          1             0       -1.275133    3.052375    0.380478
   44          1             0       -2.724694    3.606119   -1.562465
   45          1             0       -4.093141    2.836456   -0.761792
   46          1             0       -3.891782    4.513420    1.106460
   47          1             0       -4.335232    5.193682   -0.457885
   48          1             0       -1.949983    5.854658   -0.827245
   49          1             0       -1.554206    5.266887    0.787972
   50          1             0       -3.175510    6.872976    1.774474
   51          1             0       -3.561428    7.472654    0.162357
   52          1             0       -1.194744    8.179552   -0.142403
   53          1             0       -0.807123    7.578916    1.469166
   54          1             0       -2.802992    9.810163    0.853097
   55          1             0       -2.412856    9.209882    2.464551
   56          1             0       -1.180189   10.034599    1.508553
 --------------------------------------------------------------------
     1 basis functions        1 primitive gaussians
     1 alpha electrons        1 beta electrons
 
 Harmonic frequencies (cm**-1), IR intensities (km*mol⁻¹),
 Raman scattering activities (A**4/amu), Raman depolarization ratios,
 reduced masses (AMU), force constants (mDyne/A) and normal coordinates:
                      1                      2                      3
                        a                      a                      a 
 Frequencies --     9.2780                15.2829                23.3076
 Red. masses --     9.6374                 8.8117                 9.0902
 Frc consts  --     0.0000                 0.0000                 0.0000
 IR Inten    --     0.0008                 0.0004                 0.0053
 Raman Activ --     0.0000                 0.0000                 0.0000
 Depolar     --     0.0000                 0.0000                 0.0000
 Atom AN      X      Y      Z        X      Y      Z        X      Y      Z
   1   6     0.17   0.32   0.19    -0.15   0.20  -0.33    -0.07   0.19  -0.11
   2   6     0.23   0.26  -0.04    -0.09   0.03   0.00    -0.03   0.12  -0.18
   3   6     0.09   0.08  -0.15     0.17   0.11   0.16    -0.02  -0.06  -0.21
   4   6    -0.06  -0.01  -0.05     0.18   0.16   0.09    -0.06  -0.16  -0.06
   5   6    -0.03   0.01  -0.07     0.00   0.01   0.14    -0.05  -0.07   0.02
   6   6    -0.15  -0.07   0.00     0.01   0.05   0.09    -0.08  -0.16   0.13
   7   6    -0.12  -0.05  -0.01    -0.10  -0.06   0.12    -0.01  -0.06   0.15
   8   6    -0.19  -0.10   0.05    -0.10  -0.03   0.06    -0.03  -0.11   0.22
   9   6    -0.16  -0.07   0.04    -0.13  -0.08   0.04     0.08  -0.02   0.18
  10   6    -0.18  -0.10   0.08    -0.12  -0.05  -0.02     0.06  -0.03   0.19
  11   6    -0.15  -0.06   0.07    -0.07  -0.05  -0.08     0.19   0.01   0.09
  12   6    -0.12  -0.06   0.08    -0.07  -0.02  -0.12     0.12   0.01   0.06
  13   6    -0.08  -0.03   0.08     0.06   0.02  -0.21     0.22   0.01  -0.08
  14   6     0.01   0.01   0.05     0.03   0.03  -0.23     0.10   0.00  -0.13
  15   6     0.06  -0.04  -0.02     0.08  -0.05  -0.02     0.08   0.03   0.04
  16   6     0.15  -0.01  -0.04     0.07  -0.04  -0.05    -0.07   0.06  -0.13
  17   6     0.20  -0.06  -0.12     0.12  -0.13   0.20    -0.11   0.09   0.04
  18   6     0.30  -0.03  -0.14     0.12  -0.12   0.17    -0.28   0.14  -0.18
  19   1     0.03   0.08   0.06     0.01   0.11  -0.11    -0.01   0.05  -0.04
  20   1     0.08   0.13   0.07    -0.09   0.04  -0.12    -0.02   0.09  -0.03
  21   1     0.02   0.08   0.08    -0.06   0.06  -0.13    -0.04   0.04  -0.00
  22   1     0.10   0.09  -0.04    -0.02   0.00   0.03     0.01   0.05  -0.08
  23   1     0.08   0.09  -0.02    -0.08  -0.04   0.01    -0.02   0.04  -0.04
  24   1     0.04   0.02  -0.09     0.05   0.00   0.11    -0.00  -0.02  -0.08
  25   1     0.01   0.01  -0.04     0.10   0.07   0.03    -0.00  -0.03  -0.08
  26   1    -0.03   0.00   0.03     0.05   0.07  -0.03    -0.02  -0.05   0.01
  27   1    -0.04  -0.04  -0.04     0.10   0.06   0.05    -0.03  -0.08  -0.03
  28   1     0.01  -0.00  -0.06     0.00  -0.02   0.09    -0.01  -0.02  -0.02
  29   1     0.01   0.03   0.00    -0.04  -0.01   0.02    -0.01   0.01   0.02
  30   1    -0.06  -0.02   0.04     0.00   0.03  -0.01    -0.03  -0.06   0.07
  31   1    -0.06  -0.05  -0.02     0.03   0.03   0.05    -0.04  -0.07   0.02
  32   1    -0.02   0.01   0.01    -0.06  -0.03   0.02     0.01  -0.00   0.06
  33   1    -0.03  -0.02  -0.03    -0.03  -0.03   0.07    -0.00  -0.01   0.02
  34   1    -0.06  -0.03   0.04    -0.03  -0.00  -0.00    -0.01  -0.05   0.10
  35   1    -0.07  -0.05   0.00    -0.02   0.01   0.03    -0.04  -0.04   0.05
  36   1    -0.05  -0.02  -0.00    -0.04  -0.03   0.03     0.02   0.01   0.02
  37   1    -0.04  -0.01   0.02    -0.05  -0.04   0.00     0.05  -0.00   0.07
  38   1    -0.06  -0.04   0.02    -0.05  -0.00  -0.01    -0.02  -0.01   0.04
  39   1    -0.05  -0.03   0.04    -0.03  -0.02  -0.00     0.02  -0.02   0.09
  40   1    -0.04  -0.02   0.02    -0.01  -0.02  -0.02     0.09   0.00   0.04
  41   1    -0.05  -0.01   0.02    -0.02  -0.01  -0.03     0.06   0.01  -0.01
  42   1    -0.04  -0.02   0.02    -0.05   0.00  -0.04    -0.00   0.01   0.00
  43   1    -0.03  -0.03   0.03    -0.01  -0.02  -0.01     0.03   0.00   0.05
  44   1    -0.03  -0.02   0.02     0.05   0.01  -0.05     0.10   0.00  -0.00
  45   1    -0.03   0.01   0.03     0.02   0.02  -0.09     0.07  -0.00  -0.06
  46   1     0.01   0.02   0.02    -0.04   0.01  -0.08    -0.01   0.00  -0.06
  47   1     0.00   0.01   0.02     0.04   0.03  -0.10     0.05  -0.00  -0.08
  48   1     0.01  -0.03  -0.01     0.07  -0.01   0.01     0.08  -0.01   0.03
  49   1     0.02  -0.02  -0.01    -0.01  -0.03   0.03    -0.01   0.02   0.07
  50   1     0.05   0.01  -0.00    -0.04  -0.01  -0.04    -0.08   0.03  -0.06
  51   1     0.04   0.00  -0.00     0.06   0.01  -0.05     0.01  -0.00  -0.09
  52   1     0.05  -0.03  -0.04     0.09  -0.04   0.08     0.03   0.00   0.03
  53   1     0.06  -0.03  -0.04    -0.01  -0.06   0.09    -0.07   0.05   0.07
  54   1     0.09  -0.00  -0.03     0.08  -0.01   0.01    -0.05   0.02  -0.11
  55   1     0.10   0.01  -0.03    -0.02  -0.04   0.03    -0.15   0.06  -0.07
  56   1     0.10  -0.02  -0.06     0.05  -0.05   0.10    -0.09   0.05  -0.01
                      4                      5                      6
                        a                      a                      a 
 Frequencies --    32.2277                38.9924                41.3010
 Red. masses --     7.4379                 7.0679                 7.9375
 Frc consts  --     0.0000                 0.0000                 0.0000
 IR Inten    --     0.0017                 0.0013                 0.0043
 Raman Activ --     0.0000                 0.0000                 0.0000
 Depolar     --     0.0000                 0.0000                 0.0000
 Atom AN      X      Y      Z        X      Y      Z        X      Y      Z
   1   6     0.13  -0.35   0.02     0.10   0.02   0.08     0.26  -0.30   0.06
   2   6    -0.02  -0.07  -0.04     0.12  -0.01   0.07     0.08   0.07  -0.12
   3   6    -0.08   0.02  -0.06     0.09   0.02   0.06    -0.02   0.04  -0.18
   4   6     0.05   0.07  -0.08     0.01   0.03  -0.01     0.04   0.02  -0.11
   5   6     0.12   0.15  -0.08    -0.14  -0.12   0.00    -0.08   0.01   0.02
   6   6     0.11   0.12  -0.04    -0.04  -0.02  -0.11     0.05   0.04   0.04
   7   6     0.12   0.14  -0.02    -0.22  -0.16  -0.04    -0.17  -0.06   0.19
   8   6     0.00   0.06   0.06     0.01  -0.01  -0.18     0.00   0.03   0.13
   9   6    -0.01   0.05   0.07    -0.17  -0.10  -0.05    -0.18  -0.08   0.22
  10   6    -0.16  -0.02   0.14     0.12   0.04  -0.17     0.02   0.06   0.07
  11   6    -0.11  -0.02   0.09    -0.06  -0.02  -0.01    -0.07  -0.03   0.08
  12   6    -0.20  -0.04   0.10     0.17   0.06  -0.06     0.07   0.08  -0.08
  13   6    -0.05   0.01  -0.03     0.03   0.03   0.07     0.05   0.03  -0.12
  14   6    -0.06   0.04  -0.10     0.04   0.01   0.13     0.02   0.05  -0.17
  15   6     0.02  -0.08   0.15     0.06  -0.03   0.26    -0.01   0.08  -0.20
  16   6    -0.01   0.04  -0.14    -0.02   0.06  -0.00    -0.01   0.01  -0.04
  17   6     0.10  -0.12   0.18     0.01   0.01   0.19    -0.04   0.05  -0.04
  18   6     0.05   0.04  -0.20    -0.12   0.15  -0.21    -0.02  -0.07   0.24
  19   1     0.01  -0.15  -0.00     0.03   0.02   0.03     0.03  -0.17  -0.00
  20   1     0.04  -0.12   0.01     0.04  -0.00   0.03     0.09  -0.07   0.02
  21   1     0.10  -0.10   0.03     0.02   0.01   0.01     0.15  -0.09   0.07
  22   1    -0.06  -0.03  -0.02     0.04  -0.01   0.03    -0.04   0.03  -0.08
  23   1     0.03   0.03  -0.01     0.04  -0.01   0.01     0.07   0.10  -0.02
  24   1    -0.04   0.04  -0.03     0.04  -0.01   0.02    -0.02   0.04  -0.08
  25   1    -0.05  -0.02  -0.01     0.03   0.02   0.03    -0.03  -0.02  -0.05
  26   1     0.03  -0.00  -0.03    -0.01   0.04  -0.03     0.01   0.01  -0.06
  27   1     0.01   0.04  -0.02     0.03   0.02   0.01     0.05   0.00  -0.02
  28   1     0.03   0.05  -0.04    -0.05  -0.05   0.06    -0.04   0.00   0.05
  29   1     0.05   0.05  -0.01    -0.08  -0.07  -0.03    -0.07  -0.01  -0.02
  30   1     0.03   0.03  -0.00    -0.00   0.02  -0.11     0.02   0.03  -0.06
  31   1     0.03   0.02  -0.02     0.04   0.03   0.01     0.08   0.02   0.05
  32   1     0.04   0.07   0.01    -0.13  -0.10  -0.06    -0.12  -0.05   0.01
  33   1     0.05   0.03  -0.03    -0.08  -0.05   0.08    -0.06  -0.03   0.14
  34   1    -0.01   0.03   0.04     0.03  -0.00  -0.15     0.02   0.02  -0.05
  35   1    -0.01  -0.01   0.00     0.08   0.05  -0.00     0.07   0.04   0.08
  36   1     0.01  -0.00  -0.01    -0.07  -0.02   0.09    -0.07  -0.03   0.16
  37   1     0.01   0.05   0.03    -0.13  -0.08  -0.06    -0.12  -0.07   0.02
  38   1    -0.07  -0.03   0.02     0.11   0.06  -0.00     0.05   0.07   0.05
  39   1    -0.06   0.00   0.08     0.06   0.00  -0.15     0.02   0.01  -0.05
  40   1    -0.01   0.01   0.04    -0.09  -0.04  -0.04    -0.06  -0.06  -0.00
  41   1    -0.03  -0.01  -0.00    -0.03   0.00   0.08    -0.03  -0.01   0.09
  42   1    -0.10  -0.02   0.01     0.11   0.05   0.01     0.04   0.07  -0.00
  43   1    -0.06  -0.02   0.08     0.07   0.01  -0.10     0.03   0.01  -0.07
  44   1     0.03  -0.01   0.01    -0.03   0.02   0.01     0.01  -0.00  -0.04
  45   1    -0.02   0.02  -0.04     0.01  -0.00   0.05     0.02  -0.00  -0.02
  46   1    -0.09   0.02  -0.05    -0.01  -0.01   0.03     0.01   0.02  -0.05
  47   1     0.03   0.03  -0.08     0.03   0.02   0.03     0.00   0.00  -0.05
  48   1     0.10  -0.07   0.08     0.08  -0.05   0.09    -0.03   0.05  -0.07
  49   1    -0.06  -0.03   0.13    -0.02   0.00   0.14     0.02   0.02  -0.09
  50   1    -0.12   0.06  -0.08    -0.08   0.06  -0.03     0.03  -0.03  -0.01
  51   1     0.08   0.03  -0.14     0.05   0.01  -0.08    -0.02   0.01   0.02
  52   1     0.15  -0.10   0.09     0.10  -0.06   0.08    -0.05   0.07  -0.02
  53   1    -0.06  -0.04   0.17    -0.06   0.03   0.15     0.02  -0.00  -0.06
  54   1     0.11   0.02  -0.18     0.03   0.03  -0.17    -0.04  -0.00   0.12
  55   1    -0.12   0.07  -0.10    -0.14   0.11  -0.09     0.04  -0.07   0.08
  56   1     0.04  -0.03   0.02    -0.03   0.03  -0.01    -0.01  -0.01   0.06
                      7                      8                      9
                        a                      a                      a 
 Frequencies --    47.2281                71.5506                79.1489
 Red. masses --     8.5877                 8.6303                 6.3455
 Frc consts  --     0.0000                 0.0000                 0.0000
 IR Inten    --     0.0037                 0.0014                 0.0056
 Raman Activ --     0.0000                 0.0000                 0.0000
 Depolar     --     0.0000                 0.0000                 0.0000
 Atom AN      X      Y      Z        X      Y      Z        X      Y      Z
   1   6     0.14  -0.24  -0.10    -0.17   0.18   0.09     0.04   0.06   0.05
   2   6     0.06  -0.12   0.06     0.02  -0.16   0.10     0.07   0.00   0.01
   3   6     0.15   0.05   0.13    -0.06  -0.10   0.06     0.03  -0.02  -0.01
   4   6     0.17   0.14  -0.02    -0.07  -0.06  -0.01    -0.05  -0.03  -0.04
   5   6     0.07  -0.00  -0.05     0.16   0.05  -0.18    -0.29  -0.20   0.07
   6   6    -0.08  -0.05  -0.06     0.18   0.08  -0.21     0.11   0.06  -0.13
   7   6    -0.10  -0.09  -0.09     0.12   0.05  -0.16    -0.10  -0.06   0.00
   8   6    -0.28  -0.19  -0.00     0.09   0.00  -0.08     0.21   0.11  -0.12
   9   6    -0.13  -0.08  -0.07    -0.19  -0.12   0.13     0.12   0.08  -0.04
  10   6    -0.22  -0.16   0.05    -0.11  -0.10   0.14    -0.06  -0.03   0.09
  11   6     0.03   0.03  -0.04    -0.20  -0.14   0.23     0.09   0.05   0.01
  12   6    -0.01  -0.03   0.07     0.00  -0.02   0.09    -0.29  -0.14   0.22
  13   6     0.14   0.09   0.02     0.13   0.01  -0.03     0.06   0.01  -0.03
  14   6     0.13   0.06   0.08     0.12   0.06  -0.12     0.00   0.03  -0.08
  15   6     0.09   0.12   0.04     0.11   0.06  -0.08     0.02   0.01   0.01
  16   6     0.04   0.07   0.12     0.05   0.04  -0.06     0.02  -0.00   0.04
  17   6    -0.07   0.22  -0.09    -0.03   0.12  -0.02    -0.00   0.03  -0.06
  18   6    -0.15   0.17  -0.03    -0.13   0.03   0.10     0.01   0.01  -0.01
  19   1     0.05  -0.07  -0.04    -0.05   0.15   0.09     0.00   0.04   0.03
  20   1     0.02  -0.09  -0.05    -0.01   0.02   0.05     0.03   0.01   0.02
  21   1     0.08  -0.06  -0.04    -0.13   0.07  -0.06    -0.00   0.02  -0.00
  22   1    -0.02  -0.05   0.03     0.08  -0.05   0.08     0.04   0.00   0.01
  23   1     0.02  -0.03   0.02    -0.01  -0.12  -0.02     0.02  -0.01  -0.01
  24   1     0.04   0.00   0.08    -0.01  -0.03   0.01     0.02  -0.02  -0.01
  25   1     0.06   0.04   0.05    -0.03  -0.02   0.04     0.01   0.01   0.00
  26   1     0.05   0.06  -0.05    -0.02  -0.04   0.05    -0.03   0.03  -0.07
  27   1     0.08   0.07   0.02    -0.08  -0.01  -0.03     0.04  -0.00   0.02
  28   1     0.04  -0.03  -0.01     0.04   0.04  -0.09    -0.12  -0.06   0.17
  29   1     0.01   0.01  -0.01     0.10   0.00  -0.03    -0.18  -0.15  -0.06
  30   1    -0.04   0.00   0.00     0.06   0.03  -0.08     0.08   0.01  -0.18
  31   1    -0.03  -0.03  -0.03     0.07   0.03  -0.05     0.13   0.11   0.04
  32   1    -0.01   0.01  -0.01     0.02   0.03  -0.05    -0.11  -0.08  -0.06
  33   1    -0.01  -0.05  -0.06     0.04   0.00  -0.04    -0.06  -0.02   0.12
  34   1    -0.10  -0.06   0.07     0.02   0.04  -0.08     0.09   0.01  -0.12
  35   1    -0.13  -0.09  -0.04     0.10  -0.02   0.00     0.11   0.09   0.01
  36   1    -0.03  -0.01  -0.09    -0.06  -0.06   0.12     0.05  -0.00  -0.03
  37   1     0.01   0.01   0.01    -0.14  -0.04   0.00     0.03   0.07  -0.00
  38   1    -0.13  -0.08  -0.03     0.01  -0.02   0.06    -0.07  -0.05  -0.01
  39   1    -0.06  -0.07   0.10    -0.02  -0.03  -0.00    -0.03  -0.01   0.11
  40   1     0.08   0.04   0.02    -0.11  -0.08   0.04     0.11   0.10   0.06
  41   1     0.01   0.04  -0.09    -0.08  -0.03   0.13     0.06  -0.01  -0.12
  42   1    -0.05  -0.04  -0.01    -0.01   0.05   0.03    -0.22  -0.11  -0.01
  43   1    -0.00  -0.02   0.08     0.02  -0.04   0.01    -0.11  -0.04   0.23
  44   1     0.08   0.04   0.03     0.07  -0.02   0.00     0.11   0.00   0.04
  45   1     0.04   0.05  -0.04     0.03   0.02  -0.03     0.01   0.04  -0.10
  46   1     0.05   0.01   0.03     0.01   0.03  -0.04    -0.03   0.02  -0.03
  47   1     0.03   0.01   0.04     0.05   0.01  -0.06     0.02   0.01  -0.05
  48   1     0.00   0.05   0.01     0.04   0.03  -0.02     0.02   0.01   0.01
  49   1     0.05   0.04  -0.01     0.03   0.02  -0.02    -0.00  -0.01   0.01
  50   1     0.07   0.01   0.06     0.01  -0.00  -0.02     0.03  -0.00   0.02
  51   1    -0.04  -0.01   0.08     0.01  -0.00  -0.02    -0.01  -0.01   0.03
  52   1    -0.08   0.08  -0.05    -0.02   0.07  -0.00    -0.03   0.02  -0.03
  53   1     0.03   0.10  -0.07     0.01   0.04  -0.02     0.02   0.02  -0.04
  54   1    -0.10   0.01   0.03    -0.06   0.00   0.05    -0.02  -0.00   0.02
  55   1     0.02   0.04   0.01    -0.02  -0.02   0.03     0.04  -0.00   0.01
  56   1    -0.07   0.09  -0.06    -0.06   0.03   0.04    -0.00   0.01  -0.03
                     10                     11                     12
                        a                      a                      a 
 Frequencies --    84.2105               108.7393               110.1499
 Red. masses --     8.7085                 8.4094                 7.2045
 Frc consts  --     0.0000                 0.0000                 0.0000
 IR Inten    --     0.0040                 0.0210                 0.0005
 Raman Activ --     0.0000                 0.0000                 0.0000
 Depolar     --     0.0000                 0.0000                 0.0000
 Atom AN      X      Y      Z        X      Y      Z        X      Y      Z
   1   6     0.05  -0.02  -0.05    -0.07   0.06   0.07    -0.05   0.05   0.07
   2   6     0.10  -0.13   0.08     0.06  -0.17   0.06    -0.03   0.02  -0.04
   3   6     0.13   0.00   0.12    -0.06  -0.02   0.02    -0.09  -0.05  -0.09
   4   6     0.03   0.07  -0.06    -0.01   0.06  -0.11     0.01  -0.09   0.03
   5   6    -0.09  -0.11  -0.11     0.13   0.12  -0.21     0.06   0.02   0.08
   6   6    -0.18  -0.12  -0.13     0.10   0.08  -0.15     0.30   0.15  -0.00
   7   6    -0.09  -0.03  -0.14    -0.19  -0.05   0.07     0.02  -0.06   0.10
   8   6    -0.06  -0.09  -0.02    -0.12  -0.07   0.14    -0.08  -0.05   0.03
   9   6     0.09   0.11   0.01    -0.11  -0.02   0.19    -0.07  -0.11  -0.05
  10   6     0.12   0.05   0.14     0.08   0.08   0.09    -0.20  -0.15  -0.04
  11   6     0.10   0.09   0.19     0.32   0.17  -0.09     0.12   0.05  -0.20
  12   6     0.06   0.08   0.18     0.09   0.10  -0.05     0.08  -0.03  -0.06
  13   6    -0.06  -0.05   0.15     0.04   0.01  -0.08    -0.08  -0.01   0.14
  14   6    -0.08   0.03  -0.03    -0.15  -0.06  -0.06     0.05  -0.02   0.24
  15   6    -0.12   0.09  -0.24    -0.17  -0.06   0.12    -0.03   0.13  -0.24
  16   6    -0.12   0.15  -0.36    -0.11  -0.06   0.15    -0.01   0.10  -0.16
  17   6     0.00  -0.04   0.05    -0.04  -0.13  -0.05     0.04   0.01   0.15
  18   6     0.08  -0.08   0.19     0.18  -0.04  -0.11    -0.03   0.04   0.04
  19   1     0.03   0.04   0.00    -0.04   0.12   0.10    -0.03   0.02   0.04
  20   1     0.01  -0.03  -0.02     0.03  -0.05   0.05     0.01   0.01   0.03
  21   1    -0.00   0.00  -0.06    -0.08   0.04  -0.09    -0.03   0.02   0.01
  22   1     0.05  -0.05   0.06     0.07  -0.07   0.08     0.01   0.01  -0.02
  23   1     0.01  -0.08   0.01     0.02  -0.11  -0.03     0.00   0.01  -0.02
  24   1     0.05  -0.03   0.06    -0.02   0.01  -0.00    -0.04   0.01  -0.05
  25   1     0.06   0.05   0.06    -0.04  -0.00   0.03    -0.05  -0.05  -0.04
  26   1    -0.01   0.05  -0.05     0.01  -0.00  -0.02     0.01  -0.05   0.02
  27   1     0.03   0.04  -0.00    -0.03   0.04  -0.04    -0.00  -0.04   0.00
  28   1    -0.01  -0.06  -0.02     0.04   0.05  -0.09    -0.01   0.04   0.06
  29   1    -0.04  -0.03  -0.04     0.07   0.04  -0.04     0.00  -0.04   0.00
  30   1    -0.06  -0.04  -0.01     0.02   0.06  -0.09     0.10   0.07  -0.11
  31   1    -0.07  -0.05  -0.05     0.09   0.00  -0.02     0.17   0.09   0.06
  32   1    -0.01   0.01  -0.02    -0.13  -0.00  -0.01    -0.06  -0.02  -0.00
  33   1    -0.03   0.01  -0.07    -0.05  -0.04   0.08     0.02  -0.07   0.09
  34   1    -0.01  -0.06   0.04    -0.03  -0.03   0.03    -0.03   0.00   0.01
  35   1    -0.05  -0.05  -0.03    -0.03  -0.02   0.04    -0.03  -0.01   0.01
  36   1     0.02   0.06  -0.04    -0.05   0.02   0.09    -0.00  -0.05  -0.05
  37   1     0.06   0.06   0.02    -0.05  -0.04   0.04     0.00  -0.02  -0.00
  38   1     0.04  -0.01   0.04    -0.02   0.06   0.02    -0.14  -0.06  -0.06
  39   1     0.04   0.01   0.05     0.05  -0.02   0.04    -0.06  -0.07   0.08
  40   1     0.03   0.03   0.06     0.17   0.08   0.02     0.11   0.04  -0.02
  41   1     0.03   0.02   0.06     0.10   0.05  -0.11     0.03   0.05  -0.15
  42   1     0.03   0.03   0.06     0.01  -0.00  -0.03     0.05  -0.05  -0.01
  43   1     0.01   0.05   0.03     0.00   0.06   0.02     0.02   0.01  -0.03
  44   1    -0.04  -0.05   0.02     0.02   0.03  -0.01    -0.08   0.00   0.02
  45   1    -0.01  -0.04   0.09     0.03  -0.03  -0.05    -0.03  -0.00   0.09
  46   1    -0.00   0.05   0.01    -0.08  -0.04  -0.03     0.14  -0.01   0.11
  47   1    -0.04  -0.03  -0.01    -0.03  -0.02  -0.04    -0.06  -0.04   0.16
  48   1    -0.05  -0.01  -0.08    -0.02  -0.00   0.04    -0.11   0.04  -0.11
  49   1    -0.02   0.06  -0.07    -0.06  -0.03   0.04     0.07   0.07  -0.14
  50   1    -0.13   0.05  -0.14     0.00  -0.01   0.06    -0.05   0.00  -0.07
  51   1     0.04   0.08  -0.17    -0.05  -0.01   0.07     0.03   0.06  -0.06
  52   1     0.07   0.02   0.05    -0.04  -0.07  -0.03     0.09  -0.00   0.08
  53   1    -0.06  -0.07   0.04     0.00  -0.05  -0.03    -0.05  -0.01   0.11
  54   1     0.09   0.05   0.02     0.04  -0.01  -0.01     0.07   0.05  -0.07
  55   1    -0.06  -0.06   0.02     0.09   0.03  -0.01    -0.13   0.01  -0.03
  56   1     0.05  -0.07   0.15     0.07  -0.03  -0.09     0.01  -0.02   0.12
                     13                     14                     15
                        a                      a                      a 
 Frequencies --   119.8678               120.7062               138.0103
 Red. masses --     7.1650                 6.5633                 8.8312
 Frc consts  --     0.0000                 0.0000                 0.0000
 IR Inten    --     0.0057                 0.0085                 0.0524
 Raman Activ --     0.0000                 0.0000                 0.0000
 Depolar     --     0.0000                 0.0000                 0.0000
 Atom AN      X      Y      Z        X      Y      Z        X      Y      Z
   1   6    -0.03  -0.01  -0.00    -0.01  -0.03  -0.03     0.05  -0.02  -0.07
   2   6    -0.06   0.04  -0.03    -0.02  -0.01   0.01     0.06  -0.03  -0.03
   3   6    -0.03  -0.01  -0.02     0.01   0.00   0.03     0.12  -0.12  -0.00
   4   6     0.03  -0.04   0.07     0.02   0.00   0.02     0.02  -0.18   0.06
   5   6     0.22   0.12   0.00     0.20   0.11  -0.08    -0.01  -0.16   0.09
   6   6    -0.01  -0.02   0.09    -0.16  -0.11   0.07    -0.01  -0.14   0.07
   7   6    -0.09  -0.12   0.08    -0.13  -0.09   0.05     0.23   0.02  -0.06
   8   6     0.03   0.01  -0.09     0.10   0.05  -0.07     0.15   0.02  -0.07
   9   6    -0.09  -0.10  -0.06    -0.06  -0.04   0.03    -0.16  -0.15   0.08
  10   6     0.08  -0.00  -0.16     0.16   0.08  -0.09    -0.12  -0.08   0.01
  11   6     0.08   0.04  -0.11     0.05   0.03  -0.01    -0.02   0.02  -0.05
  12   6    -0.13  -0.11   0.12    -0.24  -0.12   0.16     0.01   0.05  -0.06
  13   6     0.00   0.01   0.09    -0.01  -0.00   0.01     0.08   0.13  -0.09
  14   6     0.01   0.01   0.09     0.03   0.03  -0.02    -0.15   0.04  -0.01
  15   6     0.05  -0.05   0.23    -0.02   0.12  -0.30    -0.28   0.20   0.04
  16   6    -0.07   0.16  -0.32     0.08  -0.05   0.14    -0.24   0.20   0.09
  17   6    -0.05   0.12  -0.21     0.06  -0.04   0.20    -0.08   0.02   0.04
  18   6     0.05  -0.03   0.21    -0.07   0.07  -0.12     0.30   0.17  -0.01
  19   1    -0.00  -0.04  -0.03     0.01  -0.02  -0.03     0.05  -0.04  -0.07
  20   1    -0.02   0.03  -0.01    -0.02   0.01  -0.02    -0.02   0.05  -0.04
  21   1     0.00  -0.01   0.04     0.00  -0.01   0.01     0.02  -0.02   0.04
  22   1    -0.03   0.02  -0.03    -0.01  -0.01   0.00     0.02  -0.00  -0.03
  23   1    -0.02   0.03   0.01    -0.01  -0.00   0.01     0.00  -0.00   0.01
  24   1    -0.02   0.01  -0.01     0.00   0.00   0.01     0.05  -0.06   0.00
  25   1    -0.01  -0.03  -0.02     0.01   0.00   0.01     0.06  -0.02  -0.01
  26   1     0.02  -0.05   0.07     0.01  -0.02   0.05    -0.00  -0.04   0.03
  27   1    -0.04  -0.03  -0.01    -0.04  -0.00  -0.02     0.00  -0.07   0.01
  28   1     0.08   0.05  -0.10     0.09   0.03  -0.15    -0.00  -0.05   0.03
  29   1     0.13   0.09   0.05     0.13   0.11   0.04    -0.00  -0.05   0.02
  30   1    -0.03   0.03   0.06    -0.09  -0.01   0.11     0.00  -0.08   0.08
  31   1    -0.01  -0.05   0.01    -0.09  -0.11  -0.02    -0.06  -0.04  -0.01
  32   1    -0.06  -0.08  -0.01    -0.05  -0.07  -0.01     0.13   0.01   0.01
  33   1    -0.04  -0.04   0.08    -0.06  -0.00   0.05     0.07   0.03  -0.08
  34   1     0.02   0.01  -0.09     0.05   0.01  -0.11     0.03   0.05  -0.07
  35   1     0.05   0.05   0.01     0.09   0.06   0.03     0.10  -0.00   0.01
  36   1    -0.04  -0.03   0.05    -0.04  -0.01   0.10    -0.04  -0.08   0.10
  37   1    -0.07  -0.07  -0.05    -0.08  -0.06  -0.03    -0.12  -0.06  -0.02
  38   1     0.04   0.03  -0.03     0.10   0.07   0.01    -0.05  -0.00  -0.00
  39   1     0.04  -0.02  -0.08     0.07   0.02  -0.10    -0.03  -0.04   0.01
  40   1     0.05   0.08  -0.01     0.02   0.07   0.01     0.02  -0.00  -0.00
  41   1     0.04  -0.01  -0.09     0.04  -0.03  -0.04    -0.01   0.02  -0.03
  42   1    -0.10  -0.10  -0.00    -0.16  -0.10  -0.01    -0.02   0.02  -0.03
  43   1    -0.06  -0.03   0.12    -0.09  -0.03   0.17     0.01   0.00   0.00
  44   1     0.03   0.01   0.04     0.05  -0.01   0.03     0.06   0.08   0.00
  45   1    -0.00   0.02  -0.01    -0.01   0.03  -0.05     0.04   0.03  -0.09
  46   1    -0.03   0.00   0.01     0.07   0.02   0.02    -0.04  -0.02  -0.01
  47   1     0.03   0.02   0.00    -0.03  -0.01   0.03    -0.06  -0.02  -0.00
  48   1     0.12  -0.11   0.10    -0.13   0.10  -0.12    -0.09   0.08   0.01
  49   1    -0.06   0.02   0.19     0.08   0.02  -0.21    -0.07   0.06  -0.00
  50   1    -0.12   0.14  -0.12     0.08  -0.09   0.05    -0.07   0.06   0.03
  51   1     0.04   0.01  -0.20    -0.01   0.03   0.12    -0.06   0.08   0.03
  52   1    -0.04   0.11  -0.06     0.07  -0.06   0.07    -0.02  -0.03   0.00
  53   1     0.00  -0.01  -0.12    -0.01   0.02   0.12    -0.04  -0.04   0.01
  54   1    -0.03   0.03   0.15     0.04   0.01  -0.13     0.12   0.11  -0.00
  55   1     0.09  -0.09   0.08    -0.12   0.06  -0.07     0.09   0.10   0.00
  56   1     0.01  -0.01   0.05    -0.02   0.01   0.02     0.15  -0.02  -0.02
                     16                     17                     18
                        a                      a                      a 
 Frequencies --   144.6559               150.3616               154.9030
 Red. masses --     7.9752                 6.9109                 7.5194
 Frc consts  --     0.0000                 0.0000                 0.0000
 IR Inten    --     0.0088                 0.0011                 0.0487
 Raman Activ --     0.0000                 0.0000                 0.0000
 Depolar     --     0.0000                 0.0000                 0.0000
 Atom AN      X      Y      Z        X      Y      Z        X      Y      Z
   1   6     0.01   0.03  -0.00    -0.01  -0.01  -0.01     0.04   0.00  -0.02
   2   6     0.17  -0.26  -0.04    -0.01  -0.00   0.01     0.13  -0.17   0.01
   3   6     0.02  -0.15  -0.10     0.01   0.01   0.03     0.03  -0.00  -0.02
   4   6     0.11  -0.11  -0.11    -0.00   0.01   0.01     0.02   0.06  -0.14
   5   6     0.08  -0.04  -0.00     0.15   0.10  -0.09    -0.14  -0.03  -0.05
   6   6     0.08  -0.09   0.11    -0.13  -0.08   0.04    -0.20  -0.13   0.09
   7   6    -0.07  -0.11   0.24    -0.24  -0.15   0.10     0.11   0.17   0.05
   8   6    -0.07  -0.04   0.16     0.26   0.15  -0.15     0.20   0.18   0.09
   9   6     0.23   0.09  -0.09     0.19   0.12  -0.09    -0.11  -0.04   0.21
  10   6     0.04   0.09  -0.15    -0.28  -0.16   0.19    -0.15   0.03   0.04
  11   6    -0.27  -0.09  -0.02    -0.07  -0.04   0.06     0.09   0.06  -0.22
  12   6    -0.19  -0.02  -0.08     0.18   0.10  -0.10    -0.05  -0.00  -0.16
  13   6    -0.11   0.10  -0.05     0.02   0.00  -0.02    -0.18   0.01   0.01
  14   6    -0.04   0.11  -0.00    -0.02  -0.01  -0.01     0.05  -0.00   0.14
  15   6    -0.03   0.11   0.04    -0.03  -0.00   0.02     0.13  -0.08   0.03
  16   6    -0.02   0.13   0.03    -0.03  -0.00   0.03     0.13  -0.03  -0.09
  17   6     0.00   0.11   0.03    -0.02  -0.02  -0.00     0.06   0.04  -0.03
  18   6     0.06   0.13   0.04     0.03  -0.00  -0.01    -0.13  -0.05   0.04
  19   1    -0.04   0.15   0.13     0.01  -0.02  -0.02    -0.03   0.12   0.10
  20   1     0.09  -0.11   0.05    -0.02   0.01  -0.01     0.08  -0.12   0.03
  21   1    -0.07   0.05  -0.18     0.00  -0.01   0.02    -0.03   0.04  -0.16
  22   1     0.12  -0.09   0.06    -0.01  -0.00   0.00     0.08  -0.07   0.06
  23   1     0.05  -0.15  -0.07    -0.01  -0.00   0.01     0.04  -0.11  -0.04
  24   1    -0.01  -0.02  -0.05     0.00  -0.00   0.01     0.01  -0.00  -0.00
  25   1    -0.03  -0.06  -0.01     0.01   0.01   0.01    -0.01   0.02   0.02
  26   1     0.04  -0.05  -0.05     0.00  -0.01   0.05     0.00   0.04  -0.09
  27   1     0.05  -0.03  -0.02    -0.04   0.00  -0.02     0.05   0.04  -0.02
  28   1     0.02  -0.01  -0.00     0.07   0.02  -0.12    -0.03  -0.03  -0.01
  29   1     0.01   0.00  -0.00     0.11   0.09   0.03    -0.07   0.02  -0.02
  30   1     0.02  -0.02   0.01    -0.07   0.01   0.04    -0.05  -0.09   0.12
  31   1     0.06  -0.05   0.04    -0.04  -0.08  -0.01    -0.13  -0.08  -0.02
  32   1    -0.05  -0.04   0.05    -0.15  -0.15  -0.04     0.09   0.05   0.04
  33   1    -0.02  -0.04   0.10    -0.12  -0.01   0.17     0.01   0.11  -0.05
  34   1    -0.01  -0.05   0.11     0.13   0.01  -0.17     0.06   0.09  -0.05
  35   1    -0.09   0.01   0.02     0.14   0.15   0.02     0.13   0.06   0.06
  36   1     0.08   0.04  -0.11     0.10  -0.02  -0.11    -0.02  -0.06   0.14
  37   1     0.15   0.03   0.02     0.09   0.14   0.01    -0.10  -0.04   0.02
  38   1     0.06   0.02  -0.02    -0.19  -0.15  -0.02    -0.11   0.04  -0.01
  39   1    -0.01   0.08  -0.08    -0.12  -0.03   0.21    -0.04  -0.01   0.05
  40   1    -0.16  -0.05  -0.04     0.01  -0.06   0.02     0.11   0.03  -0.02
  41   1    -0.08  -0.05   0.08    -0.05   0.04   0.02     0.04   0.02  -0.15
  42   1    -0.05   0.01  -0.02     0.12   0.08   0.01     0.00  -0.03  -0.04
  43   1    -0.04  -0.03  -0.03     0.07   0.02  -0.12    -0.03   0.02  -0.05
  44   1    -0.02   0.03  -0.01    -0.03   0.00  -0.02    -0.11   0.00  -0.02
  45   1    -0.05   0.05  -0.03     0.01  -0.02   0.03    -0.07   0.02   0.06
  46   1    -0.02   0.03  -0.00    -0.01  -0.01  -0.01     0.06  -0.01   0.05
  47   1    -0.01   0.04   0.00    -0.01  -0.01  -0.01     0.00   0.03   0.09
  48   1    -0.00   0.03   0.02    -0.00   0.00   0.01     0.04  -0.06   0.01
  49   1    -0.02   0.03   0.02    -0.01  -0.00   0.01     0.03  -0.02   0.02
  50   1    -0.01   0.04   0.01    -0.01  -0.00   0.01     0.01   0.01  -0.03
  51   1    -0.00   0.04   0.01    -0.01  -0.00   0.01     0.05  -0.02  -0.05
  52   1    -0.00   0.03   0.01    -0.01  -0.01  -0.00     0.02   0.04  -0.00
  53   1    -0.00   0.03   0.01    -0.00  -0.01  -0.00     0.02   0.03  -0.01
  54   1     0.02   0.05   0.02     0.01   0.00   0.00    -0.05  -0.04   0.01
  55   1     0.02   0.04   0.01     0.02   0.01   0.00    -0.04  -0.05   0.01
  56   1     0.02   0.03   0.01     0.01  -0.01  -0.01    -0.07   0.02   0.03
                     19                     20                     21
                        a                      a                      a 
 Frequencies --   179.9207               198.8817               233.3106
 Red. masses --     6.4272                 7.8970                 2.2629
 Frc consts  --     0.0000                 0.0000                 0.0000
 IR Inten    --     0.1074                 0.0269                 0.0012
 Raman Activ --     0.0000                 0.0000                 0.0000
 Depolar     --     0.0000                 0.0000                 0.0000
 Atom AN      X      Y      Z        X      Y      Z        X      Y      Z
   1   6     0.06  -0.01  -0.11    -0.00   0.00   0.00    -0.01   0.00   0.01
   2   6     0.07  -0.06   0.06    -0.02   0.02   0.08    -0.01   0.01   0.01
   3   6     0.20  -0.15   0.12     0.02   0.08   0.11    -0.01   0.02   0.01
   4   6    -0.17  -0.21   0.06    -0.16   0.13  -0.09    -0.00   0.03  -0.01
   5   6     0.06  -0.10  -0.13    -0.11   0.06  -0.21    -0.01   0.00  -0.02
   6   6     0.13  -0.03  -0.15    -0.02   0.02  -0.13    -0.00  -0.00  -0.01
   7   6    -0.03  -0.01   0.03    -0.06   0.10   0.06     0.00   0.00   0.00
   8   6    -0.02  -0.03   0.12     0.06   0.03   0.20     0.01  -0.01   0.02
   9   6     0.02   0.06   0.13     0.14   0.02   0.13     0.02  -0.02   0.01
  10   6    -0.03   0.12   0.04     0.03   0.03  -0.00     0.01  -0.01  -0.00
  11   6     0.01   0.09  -0.08    -0.10  -0.22  -0.09    -0.00  -0.03  -0.01
  12   6    -0.12   0.09  -0.12    -0.05  -0.20  -0.14    -0.00  -0.03  -0.01
  13   6    -0.28   0.04  -0.00     0.21   0.05  -0.15     0.01  -0.01   0.00
  14   6    -0.06   0.12  -0.04     0.15  -0.20   0.28     0.02  -0.02   0.02
  15   6     0.07  -0.03   0.03    -0.02   0.02   0.03    -0.02   0.05  -0.09
  16   6     0.13  -0.00   0.02    -0.11   0.05  -0.08    -0.05   0.06  -0.12
  17   6     0.07   0.07   0.01    -0.07  -0.01  -0.04     0.05  -0.08   0.25
  18   6    -0.09   0.02   0.02     0.08   0.01   0.02     0.01   0.04  -0.04
  19   1     0.16  -0.16  -0.25     0.06  -0.07  -0.09    -0.00  -0.00   0.00
  20   1    -0.15   0.24  -0.12    -0.07   0.09  -0.04    -0.00   0.00   0.00
  21   1     0.03  -0.08   0.24     0.01  -0.03   0.11     0.00  -0.00   0.01
  22   1     0.02  -0.01  -0.01    -0.01   0.00   0.03    -0.01   0.00  -0.00
  23   1    -0.01  -0.01   0.05    -0.01   0.01   0.03    -0.00   0.01   0.00
  24   1     0.11  -0.12   0.05     0.03  -0.02   0.06    -0.00   0.00   0.01
  25   1     0.11   0.03   0.04     0.03   0.08   0.06    -0.00   0.01   0.00
  26   1    -0.08  -0.05   0.13    -0.06   0.06  -0.01    -0.00   0.01  -0.01
  27   1    -0.14  -0.10  -0.03    -0.07   0.06  -0.03     0.00   0.01  -0.00
  28   1     0.01   0.01  -0.08    -0.03   0.02  -0.07    -0.00  -0.00  -0.00
  29   1     0.07  -0.04  -0.01    -0.02   0.02  -0.06    -0.00   0.00  -0.01
  30   1     0.05  -0.01  -0.09     0.01  -0.01  -0.05     0.00  -0.00  -0.00
  31   1     0.08   0.00  -0.02     0.02  -0.01  -0.03     0.00  -0.00  -0.00
  32   1    -0.05   0.01  -0.01    -0.04   0.05   0.01    -0.00   0.00   0.00
  33   1    -0.01  -0.01   0.04    -0.03   0.05   0.03    -0.00   0.00   0.00
  34   1    -0.00  -0.02   0.05     0.02  -0.01   0.08     0.00  -0.00   0.01
  35   1    -0.01  -0.02   0.03     0.00  -0.00   0.05     0.00  -0.00   0.01
  36   1     0.00   0.02   0.03     0.05  -0.00   0.01     0.01  -0.01   0.00
  37   1     0.02   0.01   0.04     0.07  -0.01   0.05     0.01  -0.01   0.00
  38   1    -0.03   0.05   0.01     0.03   0.03   0.01     0.00  -0.00  -0.00
  39   1    -0.01   0.04   0.02    -0.01   0.05  -0.03     0.00  -0.00  -0.00
  40   1     0.03   0.03  -0.01    -0.06  -0.09  -0.04    -0.00  -0.01  -0.00
  41   1     0.01   0.01  -0.05    -0.02  -0.09   0.02     0.00  -0.01  -0.00
  42   1    -0.00   0.02  -0.02    -0.06  -0.06  -0.06    -0.00  -0.01  -0.00
  43   1    -0.05   0.05  -0.06     0.00  -0.10   0.01    -0.00  -0.01   0.00
  44   1    -0.14  -0.02  -0.04     0.13   0.11   0.01     0.00  -0.00   0.00
  45   1    -0.10   0.02   0.07     0.07   0.04  -0.16     0.00  -0.00  -0.00
  46   1    -0.04   0.06  -0.02     0.17  -0.15   0.11     0.03  -0.01   0.02
  47   1     0.01   0.07  -0.02    -0.05  -0.07   0.20    -0.02  -0.02   0.03
  48   1     0.04  -0.02   0.02    -0.06  -0.00  -0.01    -0.02   0.01  -0.03
  49   1    -0.01  -0.03   0.02     0.04   0.06  -0.02     0.01   0.03  -0.03
  50   1     0.04   0.00   0.01    -0.06   0.03  -0.03    -0.11   0.02  -0.07
  51   1     0.03  -0.00   0.01    -0.01   0.01  -0.05     0.06   0.05  -0.10
  52   1     0.02   0.03   0.01    -0.01  -0.00  -0.01     0.11  -0.06   0.10
  53   1     0.03   0.04   0.01    -0.03  -0.03  -0.01    -0.05  -0.03   0.16
  54   1    -0.05  -0.03   0.01     0.07   0.06  -0.02    -0.34  -0.27   0.22
  55   1    -0.01  -0.01   0.01    -0.03  -0.00  -0.01     0.45   0.14   0.18
  56   1    -0.06   0.04  -0.01     0.06  -0.04   0.06    -0.11   0.19  -0.50
                     22                     23                     24
                        a                      a                      a 
 Frequencies --   250.2189               262.6617               271.1135
 Red. masses --     8.7453                 6.1425                 7.2944
 Frc consts  --     0.0000                 0.0000                 0.0000
 IR Inten    --     0.0411                 0.0044                 0.0427
 Raman Activ --     0.0000                 0.0000                 0.0000
 Depolar     --     0.0000                 0.0000                 0.0000
 Atom AN      X      Y      Z        X      Y      Z        X      Y      Z
   1   6    -0.12  -0.01   0.17     0.11  -0.08  -0.15    -0.14   0.07   0.18
   2   6    -0.24   0.26  -0.01    -0.04   0.17  -0.04    -0.01  -0.10  -0.05
   3   6    -0.03   0.06   0.06     0.13  -0.04   0.03    -0.09  -0.10  -0.10
   4   6     0.17   0.11   0.02    -0.12  -0.21   0.23     0.36   0.01  -0.03
   5   6     0.08  -0.12  -0.09     0.09  -0.07   0.10     0.13  -0.09   0.12
   6   6     0.01  -0.13  -0.18     0.02   0.03  -0.08    -0.04  -0.05  -0.01
   7   6     0.00  -0.13  -0.14    -0.05  -0.04  -0.12    -0.02  -0.08  -0.13
   8   6     0.14  -0.19   0.05    -0.04  -0.03  -0.07    -0.02  -0.05  -0.11
   9   6     0.14  -0.07   0.18    -0.03   0.13   0.07    -0.04   0.12   0.07
  10   6     0.08  -0.03   0.10    -0.00   0.13   0.13    -0.00   0.13   0.14
  11   6     0.07  -0.14  -0.07    -0.03   0.06   0.06    -0.03   0.08   0.08
  12   6    -0.11  -0.09  -0.19    -0.08   0.11  -0.08    -0.09   0.15  -0.08
  13   6    -0.24  -0.07  -0.05     0.03   0.16  -0.15     0.01   0.19  -0.17
  14   6    -0.02   0.05  -0.07    -0.01  -0.04   0.18    -0.04  -0.02   0.19
  15   6     0.01   0.05   0.04    -0.01  -0.04   0.01    -0.02  -0.05   0.02
  16   6     0.02   0.09   0.05     0.04  -0.03  -0.06     0.06  -0.02  -0.05
  17   6    -0.01   0.15   0.04     0.05  -0.06  -0.04     0.08  -0.07  -0.04
  18   6     0.06   0.18   0.05    -0.07  -0.12  -0.02    -0.08  -0.14  -0.03
  19   1    -0.13   0.00   0.13    -0.10   0.12   0.16     0.03  -0.09  -0.07
  20   1     0.05  -0.10   0.10     0.15  -0.32   0.02    -0.09   0.24   0.02
  21   1     0.01   0.03  -0.03     0.09   0.07  -0.33    -0.09  -0.05   0.25
  22   1    -0.13   0.10  -0.09    -0.08   0.06  -0.06     0.04  -0.02  -0.01
  23   1    -0.07   0.16   0.06    -0.02   0.10   0.04     0.00  -0.04  -0.03
  24   1    -0.03   0.03   0.06     0.07  -0.06   0.01    -0.08   0.07  -0.04
  25   1     0.02   0.00  -0.03     0.09   0.01  -0.03    -0.08  -0.11  -0.05
  26   1     0.06   0.04  -0.06    -0.05  -0.07   0.17     0.14  -0.01  -0.12
  27   1     0.08   0.09   0.04    -0.11  -0.13   0.01     0.20   0.05   0.05
  28   1     0.04  -0.07  -0.01     0.03  -0.00  -0.02     0.05  -0.07   0.08
  29   1     0.01  -0.04  -0.04     0.09  -0.04   0.05    -0.01  -0.04   0.00
  30   1    -0.00  -0.03  -0.05    -0.00   0.03  -0.04    -0.03   0.00   0.01
  31   1     0.00  -0.04  -0.05     0.01   0.04  -0.01    -0.03  -0.01  -0.01
  32   1    -0.01  -0.02  -0.04    -0.03  -0.01  -0.04     0.01  -0.03  -0.03
  33   1    -0.01  -0.02  -0.04    -0.01  -0.02  -0.02    -0.00  -0.03  -0.04
  34   1     0.06  -0.08   0.02    -0.00  -0.03  -0.01     0.00  -0.03  -0.03
  35   1     0.05  -0.08   0.01    -0.01  -0.03  -0.02     0.00  -0.03  -0.03
  36   1     0.04  -0.02   0.05    -0.02   0.06   0.02    -0.02   0.06   0.02
  37   1     0.04  -0.02   0.05    -0.02   0.06   0.02    -0.03   0.06   0.02
  38   1     0.01   0.01   0.03     0.00   0.04   0.04     0.00   0.04   0.04
  39   1     0.01   0.01   0.03    -0.00   0.04   0.03    -0.00   0.04   0.04
  40   1     0.05  -0.06  -0.01    -0.01  -0.01   0.01    -0.01  -0.00   0.02
  41   1     0.04  -0.07  -0.03    -0.00   0.01   0.03    -0.00   0.01   0.04
  42   1    -0.01  -0.03  -0.04    -0.06   0.05  -0.03    -0.06   0.07  -0.04
  43   1    -0.04   0.00  -0.07    -0.02   0.03   0.00    -0.03   0.04   0.00
  44   1    -0.13  -0.05  -0.05     0.05   0.11  -0.01     0.05   0.13  -0.01
  45   1    -0.10   0.01   0.07     0.02   0.05  -0.12     0.02   0.05  -0.14
  46   1    -0.03   0.03  -0.02     0.08  -0.08   0.07     0.07  -0.08   0.07
  47   1     0.01   0.03  -0.03    -0.05   0.01   0.14    -0.06   0.02   0.15
  48   1     0.02   0.02   0.02    -0.03  -0.03  -0.01    -0.04  -0.03  -0.01
  49   1    -0.01   0.01   0.02     0.02  -0.00  -0.01     0.01  -0.00  -0.01
  50   1     0.01   0.02   0.02    -0.00   0.01  -0.02     0.01   0.01  -0.02
  51   1    -0.00   0.02   0.02     0.02  -0.00  -0.03     0.03   0.00  -0.03
  52   1    -0.01   0.05   0.01     0.02  -0.01  -0.01     0.03  -0.01  -0.01
  53   1     0.01   0.05   0.01     0.01  -0.02  -0.00     0.02  -0.01  -0.01
  54   1     0.04   0.08   0.01    -0.04  -0.06  -0.00    -0.04  -0.07  -0.01
  55   1     0.00   0.06   0.01    -0.02  -0.05  -0.01    -0.03  -0.06  -0.01
  56   1     0.04   0.03   0.03    -0.04  -0.00  -0.00    -0.06  -0.00   0.01
                     25                     26                     27
                        a                      a                      a 
 Frequencies --   311.6588               340.5204               379.3756
 Red. masses --     8.5385                 8.8806                 8.3774
 Frc consts  --     0.0000                 0.0000                 0.0000
 IR Inten    --     0.0329                 0.1630                 0.4081
 Raman Activ --     0.0000                 0.0000                 0.0000
 Depolar     --     0.0000                 0.0000                 0.0000
 Atom AN      X      Y      Z        X      Y      Z        X      Y      Z
   1   6     0.13   0.02  -0.18     0.09   0.02  -0.12     0.14   0.06  -0.16
   2   6     0.18  -0.13   0.03     0.08  -0.01   0.08     0.06   0.09   0.17
   3   6    -0.16   0.07  -0.10    -0.15   0.13  -0.01    -0.28   0.06   0.01
   4   6    -0.05  -0.02   0.16    -0.13   0.09   0.04     0.05   0.02   0.19
   5   6    -0.00   0.10   0.24    -0.07   0.08   0.02     0.07  -0.13   0.01
   6   6    -0.10   0.18   0.04    -0.00   0.03   0.04    -0.04  -0.09  -0.19
   7   6    -0.09  -0.01  -0.19     0.03  -0.07  -0.03    -0.04  -0.02  -0.08
   8   6    -0.04  -0.05  -0.13     0.07  -0.12  -0.01     0.13  -0.08   0.16
   9   6    -0.02   0.09   0.07     0.08  -0.14  -0.00     0.12  -0.06   0.15
  10   6     0.11   0.03   0.21     0.09  -0.15   0.03    -0.10   0.05  -0.14
  11   6     0.11  -0.14   0.03     0.08  -0.12   0.03    -0.13   0.05  -0.16
  12   6    -0.08  -0.12  -0.15     0.03  -0.04  -0.06     0.04   0.01   0.07
  13   6    -0.15  -0.15  -0.11     0.02   0.04  -0.05     0.07   0.13   0.18
  14   6     0.16  -0.09  -0.02    -0.34  -0.03   0.02     0.07   0.20  -0.01
  15   6     0.12  -0.01   0.00    -0.31  -0.01   0.05     0.06   0.12   0.00
  16   6    -0.07  -0.02   0.01     0.26   0.19   0.01    -0.12  -0.01   0.02
  17   6    -0.14   0.09   0.06     0.35   0.15  -0.03    -0.05  -0.17  -0.05
  18   6     0.12   0.19   0.05    -0.14  -0.02   0.03    -0.02  -0.20  -0.07
  19   1     0.11   0.02  -0.10     0.07   0.02  -0.06     0.10   0.04  -0.09
  20   1    -0.03   0.04  -0.09    -0.03  -0.00  -0.07    -0.05  -0.03  -0.10
  21   1     0.01  -0.00  -0.03     0.04   0.01  -0.04     0.08   0.03  -0.08
  22   1     0.09  -0.07   0.10     0.03  -0.03   0.08     0.01   0.01   0.08
  23   1     0.07  -0.11  -0.07     0.04  -0.04  -0.02     0.04   0.01   0.01
  24   1    -0.08   0.10  -0.13    -0.06   0.08  -0.07    -0.15   0.16  -0.13
  25   1    -0.15  -0.07  -0.01    -0.11  -0.01   0.02    -0.22  -0.14  -0.01
  26   1    -0.01  -0.04   0.08    -0.04   0.02   0.03     0.04  -0.02   0.02
  27   1    -0.03  -0.06   0.03    -0.05   0.02   0.00     0.02   0.03   0.06
  28   1    -0.00   0.04   0.06    -0.03   0.03   0.00     0.04  -0.07   0.01
  29   1     0.02   0.01   0.07    -0.01   0.02   0.01     0.04  -0.07   0.00
  30   1    -0.05   0.08   0.01    -0.00   0.01   0.01    -0.01  -0.02  -0.05
  31   1    -0.05   0.09   0.01    -0.00   0.02   0.01    -0.01  -0.02  -0.05
  32   1    -0.01  -0.02  -0.05     0.02  -0.03  -0.01    -0.03   0.02  -0.02
  33   1    -0.02  -0.02  -0.05     0.01  -0.03  -0.01    -0.03   0.02  -0.02
  34   1     0.00  -0.04  -0.04     0.02  -0.04  -0.00     0.05  -0.05   0.05
  35   1     0.00  -0.04  -0.04     0.02  -0.04  -0.00     0.05  -0.05   0.04
  36   1    -0.02   0.06   0.02     0.03  -0.04  -0.00     0.05  -0.04   0.04
  37   1    -0.02   0.05   0.02     0.02  -0.04   0.00     0.05  -0.05   0.04
  38   1     0.03   0.01   0.06     0.03  -0.05   0.01    -0.04   0.04  -0.04
  39   1     0.03   0.01   0.06     0.03  -0.05   0.01    -0.05   0.04  -0.04
  40   1     0.06  -0.07   0.02     0.02  -0.05   0.01    -0.05   0.04  -0.05
  41   1     0.06  -0.08  -0.00     0.02  -0.04   0.02    -0.05   0.04  -0.04
  42   1    -0.02  -0.02  -0.04     0.00  -0.00  -0.02     0.03  -0.03   0.02
  43   1    -0.04  -0.00  -0.05     0.01  -0.02  -0.01     0.03  -0.03   0.02
  44   1    -0.10  -0.08  -0.06     0.05   0.08   0.02     0.02   0.02   0.05
  45   1    -0.08  -0.01   0.04     0.04  -0.02  -0.09     0.01   0.05   0.06
  46   1     0.08  -0.04   0.00    -0.12  -0.03  -0.01    -0.03   0.11  -0.01
  47   1     0.03  -0.01   0.04    -0.10  -0.04  -0.02     0.05   0.05  -0.06
  48   1     0.04   0.01   0.01    -0.10  -0.04   0.00     0.03   0.05   0.01
  49   1     0.04   0.02   0.01    -0.10  -0.05  -0.00     0.02   0.04   0.01
  50   1    -0.03  -0.02  -0.00     0.09   0.11   0.02    -0.03  -0.01   0.01
  51   1    -0.03  -0.03  -0.01     0.09   0.11   0.02    -0.03  -0.00   0.01
  52   1    -0.04   0.02   0.02     0.11   0.07   0.00    -0.02  -0.07  -0.02
  53   1    -0.04   0.02   0.01     0.11   0.07   0.01    -0.02  -0.07  -0.02
  54   1     0.05   0.10   0.02    -0.07  -0.08  -0.01    -0.01  -0.06  -0.02
  55   1     0.05   0.10   0.03    -0.07  -0.08  -0.01    -0.01  -0.06  -0.02
  56   1     0.08  -0.00  -0.02    -0.13   0.09   0.06    -0.01  -0.05  -0.02
                     28                     29                     30
                        a                      a                      a 
 Frequencies --   390.9257               420.4829               458.2428
 Red. masses --     9.4080                 8.6661                 8.6724
 Frc consts  --     0.0000                 0.0000                 0.0000
 IR Inten    --     0.0316                 0.3548                 0.4879
 Raman Activ --     0.0000                 0.0000                 0.0000
 Depolar     --     0.0000                 0.0000                 0.0000
 Atom AN      X      Y      Z        X      Y      Z        X      Y      Z
   1   6    -0.05  -0.02   0.05     0.11   0.07  -0.11     0.09   0.07  -0.06
   2   6    -0.00  -0.05  -0.12     0.00   0.14   0.22    -0.01   0.12   0.21
   3   6     0.10  -0.11  -0.06    -0.19  -0.10   0.09    -0.09  -0.27   0.10
   4   6     0.17  -0.13   0.13     0.06  -0.03  -0.00     0.07  -0.10  -0.15
   5   6     0.11  -0.07   0.14     0.05  -0.15  -0.14     0.02  -0.03  -0.09
   6   6    -0.16   0.10  -0.18     0.07  -0.17  -0.07     0.04  -0.04   0.04
   7   6    -0.20   0.21  -0.11     0.05   0.03   0.13     0.01   0.08   0.11
   8   6    -0.05   0.16   0.11    -0.05   0.11   0.03    -0.16   0.18  -0.11
   9   6    -0.02   0.16   0.12    -0.08   0.04  -0.09    -0.15   0.17  -0.10
  10   6    -0.11   0.15  -0.05    -0.06   0.04  -0.06     0.07   0.03   0.16
  11   6    -0.08  -0.08  -0.21    -0.04   0.15   0.07     0.10  -0.17   0.01
  12   6     0.16  -0.22   0.06     0.01   0.12   0.09    -0.00  -0.17  -0.10
  13   6     0.18  -0.20   0.14     0.01  -0.11  -0.11    -0.01  -0.11  -0.00
  14   6    -0.11  -0.15  -0.07    -0.09  -0.23   0.01     0.14   0.01  -0.04
  15   6    -0.15  -0.05  -0.01    -0.00  -0.26  -0.07    -0.06   0.23   0.10
  16   6     0.10   0.06  -0.00     0.13  -0.14  -0.08    -0.08   0.21   0.10
  17   6     0.12   0.12   0.02    -0.06   0.18   0.08     0.13  -0.07  -0.06
  18   6    -0.02   0.09   0.04     0.06   0.29   0.09    -0.05  -0.18  -0.06
  19   1    -0.04  -0.01   0.03     0.08   0.04  -0.06     0.07   0.04  -0.04
  20   1     0.03   0.02   0.04    -0.05  -0.05  -0.08    -0.05  -0.05  -0.06
  21   1    -0.04  -0.01   0.03     0.10   0.04  -0.08     0.08   0.04  -0.07
  22   1     0.01  -0.01  -0.05    -0.02   0.06   0.01    -0.03   0.08  -0.05
  23   1    -0.01  -0.01  -0.02    -0.01   0.08   0.09    -0.03   0.11   0.14
  24   1     0.02  -0.03   0.01    -0.09   0.06  -0.08    -0.03  -0.05  -0.03
  25   1     0.05  -0.04  -0.05    -0.15  -0.12   0.03    -0.06  -0.10   0.04
  26   1     0.05  -0.05   0.05     0.05  -0.02  -0.08     0.06  -0.05  -0.15
  27   1     0.06  -0.07   0.03     0.04   0.07   0.03     0.07   0.07   0.01
  28   1     0.05  -0.05   0.04     0.02  -0.06  -0.03    -0.00  -0.00  -0.02
  29   1     0.05  -0.05   0.03     0.01  -0.05  -0.04    -0.01   0.01  -0.03
  30   1    -0.06   0.05  -0.05     0.04  -0.08  -0.01     0.02  -0.03   0.02
  31   1    -0.06   0.06  -0.05     0.04  -0.08  -0.02     0.02  -0.03   0.00
  32   1    -0.08   0.09  -0.03     0.00   0.01   0.03     0.00   0.01   0.03
  33   1    -0.08   0.09  -0.03     0.01   0.02   0.04     0.01   0.01   0.03
  34   1    -0.00   0.03   0.03    -0.03   0.05   0.01    -0.06   0.08  -0.03
  35   1    -0.01   0.03   0.03    -0.03   0.05   0.01    -0.06   0.08  -0.03
  36   1    -0.00   0.04   0.03    -0.02   0.01  -0.02    -0.06   0.08  -0.03
  37   1     0.00   0.04   0.04    -0.02   0.01  -0.02    -0.06   0.08  -0.03
  38   1    -0.05   0.08  -0.01    -0.01   0.00  -0.02     0.02  -0.00   0.04
  39   1    -0.05   0.08  -0.02    -0.01  -0.00  -0.01     0.03   0.00   0.04
  40   1    -0.03  -0.01  -0.06    -0.02   0.06   0.02     0.05  -0.07   0.01
  41   1    -0.03  -0.02  -0.05    -0.02   0.06   0.02     0.05  -0.08  -0.00
  42   1     0.07  -0.10   0.02    -0.01   0.05   0.02     0.01  -0.05  -0.03
  43   1     0.07  -0.10   0.01    -0.01   0.05   0.02    -0.00  -0.04  -0.03
  44   1     0.07  -0.06   0.05     0.04  -0.01  -0.01    -0.05  -0.07  -0.03
  45   1     0.07  -0.09   0.02     0.03  -0.07  -0.07    -0.04   0.00   0.07
  46   1    -0.09  -0.01  -0.04     0.02  -0.11   0.01     0.03  -0.00  -0.02
  47   1    -0.01  -0.10  -0.10    -0.05  -0.06   0.05     0.03  -0.02  -0.02
  48   1    -0.04  -0.03  -0.01    -0.02  -0.11  -0.03     0.00   0.10   0.04
  49   1    -0.05  -0.04  -0.01    -0.00  -0.09  -0.03    -0.01   0.09   0.04
  50   1     0.04   0.03   0.01     0.02  -0.06  -0.03    -0.01   0.09   0.04
  51   1     0.03   0.04   0.01     0.03  -0.06  -0.03    -0.01   0.09   0.03
  52   1     0.04   0.05   0.01    -0.01   0.07   0.03     0.03  -0.03  -0.02
  53   1     0.04   0.05   0.01    -0.01   0.07   0.03     0.03  -0.04  -0.02
  54   1    -0.01   0.01   0.01     0.04   0.12   0.04    -0.03  -0.10  -0.03
  55   1    -0.01   0.01   0.01     0.04   0.12   0.04    -0.03  -0.10  -0.03
  56   1    -0.02   0.05   0.02     0.06   0.03  -0.00    -0.07   0.01   0.02
                     31                     32                     33
                        a                      a                      a 
 Frequencies --   485.6057               508.7671               534.4139
 Red. masses --     9.0888                 8.6536                 8.6961
 Frc consts  --     0.0000                 0.0000                 0.0000
 IR Inten    --     0.0412                 0.3449                 0.5680
 Raman Activ --     0.0000                 0.0000                 0.0000
 Depolar     --     0.0000                 0.0000                 0.0000
 Atom AN      X      Y      Z        X      Y      Z        X      Y      Z
   1   6     0.02   0.02  -0.01    -0.06  -0.06   0.02    -0.02  -0.02   0.00
   2   6    -0.01   0.03   0.08    -0.01  -0.05  -0.14    -0.00  -0.01  -0.04
   3   6    -0.03  -0.05   0.04    -0.01   0.39  -0.07    -0.01   0.12  -0.02
   4   6    -0.10   0.03  -0.19    -0.05   0.15   0.22     0.01   0.03   0.10
   5   6    -0.07   0.12  -0.03     0.03  -0.21  -0.11     0.03  -0.12  -0.07
   6   6     0.13  -0.02   0.24     0.15  -0.27  -0.03     0.05  -0.12  -0.04
   7   6     0.14  -0.30  -0.09     0.14  -0.10   0.15     0.03   0.07   0.13
   8   6     0.01  -0.22  -0.22    -0.07   0.04  -0.08    -0.13   0.15  -0.07
   9   6    -0.01   0.22   0.21    -0.11   0.16  -0.03    -0.11   0.10  -0.10
  10   6    -0.13   0.31   0.08    -0.06   0.15   0.04     0.12  -0.04   0.18
  11   6    -0.14   0.01  -0.23    -0.05   0.06  -0.02     0.12  -0.26  -0.04
  12   6     0.08  -0.11   0.01    -0.00  -0.03   0.02     0.05  -0.17  -0.15
  13   6     0.13  -0.01   0.16     0.01  -0.19  -0.06     0.05   0.28   0.20
  14   6    -0.06  -0.00  -0.00     0.13  -0.15  -0.06    -0.22   0.28   0.10
  15   6    -0.01  -0.07  -0.04    -0.05   0.10   0.06     0.05  -0.11  -0.10
  16   6     0.03  -0.06  -0.03    -0.04   0.13   0.06     0.05  -0.17  -0.08
  17   6    -0.03   0.02   0.02     0.09   0.00  -0.02    -0.13  -0.02   0.03
  18   6     0.01   0.05   0.02    -0.02  -0.05  -0.01     0.02   0.05   0.01
  19   1     0.02   0.01  -0.01    -0.05  -0.04   0.02    -0.02  -0.01   0.01
  20   1    -0.02  -0.02  -0.02     0.03   0.03   0.04     0.01   0.01   0.01
  21   1     0.03   0.01  -0.02    -0.05  -0.03   0.05    -0.01  -0.01   0.01
  22   1    -0.01   0.02  -0.01     0.02  -0.07   0.11     0.00  -0.02   0.03
  23   1    -0.01   0.03   0.05     0.04  -0.10  -0.15     0.01  -0.03  -0.05
  24   1     0.02  -0.05   0.02    -0.04   0.16  -0.01    -0.02   0.06  -0.01
  25   1     0.01   0.04   0.04    -0.02   0.05  -0.05    -0.02  -0.00  -0.02
  26   1    -0.02   0.01  -0.09    -0.07   0.09   0.18    -0.02   0.03   0.06
  27   1    -0.01   0.05  -0.03    -0.09  -0.04   0.00    -0.02  -0.02   0.01
  28   1    -0.05   0.08  -0.01     0.03  -0.09  -0.02     0.02  -0.06  -0.01
  29   1    -0.05   0.08  -0.00     0.04  -0.10  -0.03     0.02  -0.06  -0.02
  30   1     0.03  -0.00   0.06     0.07  -0.12  -0.01     0.03  -0.06  -0.01
  31   1     0.03  -0.01   0.06     0.07  -0.11  -0.00     0.03  -0.06  -0.01
  32   1     0.08  -0.14  -0.02     0.05  -0.04   0.04     0.01   0.02   0.03
  33   1     0.08  -0.14  -0.02     0.05  -0.04   0.04     0.01   0.02   0.03
  34   1     0.03  -0.10  -0.05    -0.03   0.03  -0.02    -0.06   0.08  -0.02
  35   1     0.03  -0.10  -0.06    -0.03   0.03  -0.02    -0.05   0.08  -0.02
  36   1    -0.03   0.10   0.06    -0.05   0.07  -0.01    -0.05   0.06  -0.03
  37   1    -0.03   0.10   0.05    -0.05   0.07  -0.01    -0.05   0.06  -0.03
  38   1    -0.07   0.15   0.02    -0.02   0.05   0.01     0.04  -0.03   0.05
  39   1    -0.07   0.14   0.02    -0.02   0.05   0.01     0.04  -0.02   0.05
  40   1    -0.04  -0.00  -0.06    -0.01   0.02  -0.00     0.06  -0.13  -0.01
  41   1    -0.04   0.00  -0.06    -0.01   0.02  -0.01     0.06  -0.12  -0.00
  42   1     0.05  -0.07   0.01    -0.00  -0.00   0.01     0.04  -0.08  -0.04
  43   1     0.05  -0.08   0.00    -0.01   0.01   0.00     0.04  -0.09  -0.04
  44   1     0.06   0.01   0.06    -0.03  -0.11  -0.04     0.06   0.18   0.10
  45   1     0.05  -0.02   0.01    -0.01  -0.05   0.05     0.03   0.08  -0.06
  46   1    -0.06   0.04  -0.01     0.06  -0.08  -0.02    -0.14   0.18   0.02
  47   1     0.01  -0.03  -0.07     0.01  -0.06   0.01     0.01   0.08  -0.08
  48   1    -0.01  -0.03  -0.02    -0.00   0.05   0.03    -0.01  -0.07  -0.04
  49   1    -0.01  -0.04  -0.02    -0.00   0.06   0.03    -0.00  -0.08  -0.04
  50   1     0.01  -0.03  -0.01    -0.00   0.06   0.02     0.01  -0.09  -0.03
  51   1     0.00  -0.02  -0.01     0.00   0.06   0.02    -0.00  -0.08  -0.02
  52   1    -0.00   0.01   0.01     0.02  -0.00  -0.01    -0.03   0.00   0.01
  53   1    -0.01   0.01   0.01     0.02  -0.00  -0.01    -0.03   0.00   0.01
  54   1     0.01   0.03   0.01    -0.02  -0.04  -0.01     0.02   0.05   0.01
  55   1     0.01   0.03   0.01    -0.02  -0.04  -0.01     0.02   0.05   0.02
  56   1     0.02  -0.00  -0.01    -0.04   0.02   0.02     0.05  -0.03  -0.02
                     34                     35                     36
                        a                      a                      a 
 Frequencies --   759.8728               765.8048               768.6378
 Red. masses --     2.3087                 1.8755                 1.6346
 Frc consts  --     0.0000                 0.0000                 0.0000
 IR Inten    --    12.9526                14.3509                10.0614
 Raman Activ --     0.0000                 0.0000                 0.0000
 Depolar     --     0.0000                 0.0000                 0.0000
 Atom AN      X      Y      Z        X      Y      Z        X      Y      Z
   1   6     0.05   0.06   0.01    -0.00  -0.00  -0.00     0.00   0.01   0.00
   2   6    -0.07   0.12  -0.06     0.00  -0.01   0.00    -0.01   0.02  -0.00
   3   6    -0.18   0.04  -0.03     0.01  -0.00   0.00    -0.02   0.00  -0.00
   4   6    -0.13  -0.09   0.07     0.01   0.00  -0.00    -0.01  -0.01   0.00
   5   6    -0.04  -0.09   0.10    -0.00   0.00  -0.00     0.01   0.00   0.01
   6   6    -0.03  -0.05  -0.01    -0.01  -0.00   0.00     0.04   0.03  -0.02
   7   6    -0.00  -0.00   0.00    -0.01  -0.00   0.01     0.08   0.05  -0.04
   8   6     0.01   0.02   0.00    -0.01   0.00  -0.00     0.10   0.05  -0.05
   9   6     0.01   0.01  -0.01     0.01   0.01  -0.00     0.09   0.05  -0.05
  10   6     0.01   0.00  -0.00     0.05   0.02  -0.01     0.07   0.03  -0.04
  11   6     0.00  -0.00   0.00     0.07   0.01  -0.06     0.03   0.02  -0.01
  12   6    -0.00  -0.00  -0.00     0.12   0.03  -0.03    -0.01   0.00  -0.01
  13   6    -0.00  -0.00   0.00     0.07   0.08  -0.01    -0.02  -0.02   0.00
  14   6     0.00  -0.00   0.00    -0.05   0.08  -0.07     0.01  -0.02   0.02
  15   6     0.00   0.00   0.00    -0.07   0.02  -0.10     0.02  -0.01   0.04
  16   6    -0.00   0.00   0.00     0.00   0.00  -0.09     0.00  -0.01   0.04
  17   6    -0.00   0.00  -0.00    -0.02   0.01  -0.04     0.01  -0.01   0.02
  18   6     0.00  -0.00  -0.00    -0.00   0.01   0.00     0.00  -0.00   0.00
  19   1    -0.05  -0.11  -0.03     0.00   0.01   0.00    -0.01  -0.01  -0.00
  20   1     0.01  -0.05   0.00    -0.00   0.00   0.00    -0.00  -0.01  -0.00
  21   1     0.19   0.03   0.04    -0.01  -0.00  -0.00     0.02   0.00   0.00
  22   1     0.17  -0.03   0.21    -0.01   0.00  -0.01     0.02  -0.00   0.02
  23   1     0.02  -0.19  -0.22    -0.00   0.01   0.01     0.00  -0.02  -0.02
  24   1     0.07  -0.20   0.11    -0.00   0.01  -0.00     0.01  -0.02   0.01
  25   1     0.15   0.17  -0.05    -0.01  -0.01   0.00     0.02   0.02  -0.00
  26   1     0.04   0.00  -0.35    -0.00   0.00   0.01     0.01  -0.01  -0.01
  27   1     0.27   0.11   0.20    -0.01  -0.00  -0.01     0.01   0.01   0.01
  28   1     0.04   0.05  -0.31     0.00  -0.00  -0.00    -0.02   0.02   0.06
  29   1     0.28   0.08   0.20    -0.00   0.01  -0.00    -0.02  -0.05  -0.03
  30   1     0.05  -0.02  -0.17     0.00   0.00  -0.02    -0.01  -0.05   0.17
  31   1     0.09   0.11   0.09     0.02   0.00   0.01    -0.14  -0.05  -0.10
  32   1     0.04   0.00   0.02     0.02   0.01   0.01    -0.19  -0.15  -0.16
  33   1    -0.01   0.03  -0.04     0.00   0.00  -0.02    -0.05   0.01   0.29
  34   1     0.00  -0.00   0.02     0.00  -0.01   0.00    -0.04  -0.03   0.35
  35   1    -0.02   0.00  -0.01    -0.01   0.01  -0.00    -0.25  -0.16  -0.19
  36   1    -0.00  -0.00   0.03    -0.02   0.02   0.07    -0.03  -0.02   0.34
  37   1    -0.03  -0.01  -0.02    -0.04  -0.04  -0.03    -0.25  -0.14  -0.18
  38   1    -0.02  -0.02  -0.01    -0.13  -0.05  -0.08    -0.17  -0.14  -0.13
  39   1    -0.00   0.00   0.02    -0.00  -0.03   0.17    -0.04   0.02   0.25
  40   1    -0.01  -0.00  -0.00    -0.18  -0.15  -0.13    -0.11  -0.02  -0.06
  41   1     0.00  -0.00   0.01    -0.03   0.01   0.26     0.00  -0.03   0.13
  42   1    -0.00  -0.00  -0.00    -0.22  -0.16  -0.15    -0.01  -0.02  -0.01
  43   1    -0.00   0.00   0.00    -0.01  -0.02   0.32    -0.02   0.02   0.01
  44   1     0.00   0.00   0.00    -0.17  -0.06  -0.10     0.01   0.01   0.01
  45   1    -0.00   0.00  -0.00     0.01  -0.04   0.22    -0.00   0.00  -0.02
  46   1    -0.00   0.00  -0.00     0.19  -0.04   0.05    -0.06   0.01  -0.02
  47   1     0.00   0.00  -0.00    -0.16  -0.05   0.14     0.05   0.01  -0.05
  48   1    -0.00   0.00  -0.00     0.25  -0.13   0.06    -0.09   0.04  -0.02
  49   1     0.00   0.00  -0.00    -0.21  -0.03   0.21     0.07   0.00  -0.08
  50   1    -0.00   0.00  -0.00     0.22  -0.12   0.05    -0.09   0.04  -0.02
  51   1     0.00  -0.00  -0.00    -0.15   0.01   0.19     0.06  -0.00  -0.07
  52   1    -0.00  -0.00  -0.00     0.14  -0.02   0.04    -0.06   0.01  -0.02
  53   1     0.00   0.00  -0.00    -0.10  -0.02   0.10     0.05   0.01  -0.05
  54   1    -0.00  -0.00   0.00    -0.01   0.03   0.04     0.01  -0.01  -0.02
  55   1     0.00  -0.00  -0.00     0.03  -0.03   0.01    -0.01   0.02  -0.00
  56   1    -0.00   0.00   0.00     0.01  -0.01   0.01    -0.00   0.00  -0.00
                     37                     38                     39
                        a                      a                      a 
 Frequencies --   771.5574               778.6450               790.9852
 Red. masses --     1.7882                 2.2119                 2.4807
 Frc consts  --     0.0000                 0.0000                 0.0000
 IR Inten    --     5.4825                 2.2683                 0.8065
 Raman Activ --     0.0000                 0.0000                 0.0000
 Depolar     --     0.0000                 0.0000                 0.0000
 Atom AN      X      Y      Z        X      Y      Z        X      Y      Z
   1   6     0.01   0.01   0.00    -0.01  -0.03  -0.01     0.00   0.02   0.01
   2   6    -0.02   0.04  -0.00     0.04  -0.08  -0.00    -0.05   0.08   0.02
   3   6    -0.04   0.01  -0.01     0.08  -0.01   0.02    -0.06   0.01  -0.02
   4   6    -0.03  -0.02   0.01     0.04   0.04   0.00    -0.01  -0.04  -0.03
   5   6     0.02   0.00   0.01    -0.06  -0.01  -0.01     0.08   0.03  -0.01
   6   6     0.06   0.03  -0.03    -0.10  -0.05   0.05     0.06   0.04  -0.04
   7   6     0.07   0.04  -0.04    -0.06  -0.04   0.04    -0.02  -0.01  -0.00
   8   6     0.04   0.03  -0.03     0.02   0.01  -0.01    -0.06  -0.04   0.05
   9   6    -0.01  -0.00   0.00     0.09   0.05  -0.05    -0.04  -0.03   0.02
  10   6    -0.06  -0.03   0.03     0.07   0.04  -0.05     0.04   0.03  -0.03
  11   6    -0.07  -0.05   0.04    -0.01   0.01   0.01     0.07   0.07  -0.02
  12   6    -0.05  -0.04   0.05    -0.10  -0.04   0.04    -0.03   0.03  -0.06
  13   6    -0.02  -0.01   0.01    -0.08  -0.08   0.03    -0.04  -0.06   0.01
  14   6    -0.01   0.02  -0.03     0.02  -0.04   0.03     0.06  -0.10   0.11
  15   6    -0.00   0.04  -0.08     0.04   0.03  -0.01     0.05  -0.03   0.10
  16   6    -0.03   0.04  -0.09    -0.03   0.05  -0.05    -0.03   0.04  -0.05
  17   6    -0.02   0.03  -0.07    -0.01   0.03  -0.07    -0.02   0.06  -0.14
  18   6    -0.00  -0.00  -0.01     0.00  -0.00  -0.01    -0.00   0.01  -0.03
  19   1    -0.01  -0.03  -0.01     0.03   0.06   0.02    -0.03  -0.06  -0.02
  20   1    -0.00  -0.02  -0.00     0.01   0.04   0.00    -0.01  -0.05  -0.01
  21   1     0.05   0.01   0.01    -0.11  -0.02  -0.01     0.11   0.02   0.01
  22   1     0.04  -0.01   0.05    -0.08   0.01  -0.11     0.08  -0.01   0.11
  23   1     0.00  -0.05  -0.05    -0.00   0.09   0.10    -0.00  -0.09  -0.08
  24   1     0.02  -0.05   0.02    -0.03   0.09  -0.05     0.02  -0.08   0.04
  25   1     0.04   0.04  -0.01    -0.07  -0.08   0.02     0.06   0.06  -0.02
  26   1     0.01  -0.02  -0.04    -0.03   0.05   0.05     0.03  -0.06   0.01
  27   1     0.02   0.02   0.02    -0.01  -0.02  -0.02    -0.03   0.00  -0.02
  28   1    -0.02   0.02   0.06     0.04  -0.03  -0.14    -0.03   0.01   0.16
  29   1    -0.01  -0.06  -0.03     0.05   0.12   0.07    -0.08  -0.10  -0.08
  30   1    -0.01  -0.04   0.18     0.03   0.03  -0.26    -0.04   0.02   0.14
  31   1    -0.14  -0.06  -0.10     0.18   0.11   0.16    -0.08  -0.09  -0.09
  32   1    -0.16  -0.10  -0.12     0.16   0.04   0.11    -0.02   0.06   0.01
  33   1    -0.02  -0.01   0.22    -0.01   0.05  -0.19     0.03  -0.05  -0.03
  34   1    -0.04   0.02   0.14     0.03  -0.06   0.05     0.01   0.02  -0.15
  35   1    -0.08  -0.10  -0.08    -0.07   0.04  -0.03     0.12   0.06   0.09
  36   1     0.03  -0.04  -0.02    -0.03   0.02   0.23    -0.02   0.04  -0.09
  37   1    -0.01   0.05   0.01    -0.15  -0.13  -0.12     0.09  -0.01   0.05
  38   1     0.15   0.05   0.10    -0.12  -0.13  -0.10    -0.09  -0.00  -0.06
  39   1    -0.00   0.03  -0.18    -0.04   0.04   0.19     0.02  -0.04   0.10
  40   1     0.18   0.11   0.12    -0.02   0.08   0.01    -0.13  -0.05  -0.08
  41   1     0.02  -0.00  -0.25     0.04  -0.06  -0.02    -0.00   0.00   0.17
  42   1     0.14   0.10   0.10     0.17   0.08   0.11    -0.03  -0.04  -0.03
  43   1     0.03  -0.02  -0.20    -0.01   0.04  -0.23    -0.05   0.07   0.02
  44   1     0.09   0.01   0.05     0.16   0.05   0.10     0.03   0.06   0.04
  45   1    -0.00   0.02  -0.09    -0.01   0.03  -0.20    -0.01   0.00  -0.08
  46   1     0.11   0.00   0.03    -0.04   0.04   0.00    -0.23   0.05  -0.05
  47   1    -0.08  -0.03   0.08     0.04   0.00  -0.04     0.19   0.03  -0.18
  48   1     0.20  -0.10   0.05     0.03  -0.03   0.00    -0.20   0.01  -0.06
  49   1    -0.14   0.02   0.18     0.01   0.06   0.04     0.18   0.09  -0.12
  50   1     0.25  -0.10   0.06     0.15  -0.03   0.05     0.13   0.05   0.05
  51   1    -0.19   0.00   0.21    -0.12  -0.02   0.11    -0.12  -0.08   0.07
  52   1     0.20  -0.05   0.06     0.17  -0.05   0.04     0.28  -0.11   0.06
  53   1    -0.15  -0.03   0.15    -0.13  -0.02   0.13    -0.20   0.00   0.22
  54   1    -0.02   0.05   0.07    -0.02   0.04   0.06    -0.05   0.10   0.13
  55   1     0.04  -0.07   0.00     0.04  -0.08   0.00     0.07  -0.16   0.00
  56   1     0.01  -0.01   0.02     0.00  -0.00   0.03     0.01  -0.01   0.06
                     40                     41                     42
                        a                      a                      a 
 Frequencies --   800.5470               823.5018               852.7634
 Red. masses --     2.5807                 3.2514                 4.0767
 Frc consts  --     0.0000                 0.0000                 0.0000
 IR Inten    --     1.9839                 3.0374                 0.3842
 Raman Activ --     0.0000                 0.0000                 0.0000
 Depolar     --     0.0000                 0.0000                 0.0000
 Atom AN      X      Y      Z        X      Y      Z        X      Y      Z
   1   6     0.01  -0.03  -0.02     0.06  -0.02  -0.03     0.14   0.01  -0.03
   2   6     0.07  -0.11  -0.05     0.08  -0.12  -0.13     0.05  -0.10  -0.18
   3   6     0.07  -0.01   0.03    -0.00  -0.03   0.05    -0.14  -0.06   0.06
   4   6    -0.03   0.05   0.06    -0.11   0.04   0.15    -0.14   0.05   0.17
   5   6    -0.12  -0.04   0.02    -0.10  -0.03   0.02     0.03   0.03  -0.01
   6   6    -0.04  -0.03   0.02     0.08   0.04  -0.05     0.10   0.04  -0.08
   7   6     0.08   0.04  -0.03     0.10   0.04  -0.03    -0.04  -0.05   0.05
   8   6     0.08   0.04  -0.04    -0.06  -0.05   0.03    -0.08  -0.05   0.04
   9   6    -0.03  -0.02   0.01    -0.10  -0.05   0.06     0.08   0.05  -0.05
  10   6    -0.09  -0.05   0.06     0.05   0.04  -0.03     0.07   0.03  -0.03
  11   6    -0.02   0.00   0.02     0.10   0.07  -0.06    -0.10  -0.08   0.03
  12   6     0.06   0.06  -0.08    -0.04  -0.02   0.02    -0.00  -0.03   0.06
  13   6     0.07   0.06  -0.03    -0.11  -0.11   0.04     0.10   0.11  -0.05
  14   6     0.03  -0.04   0.06    -0.01  -0.02   0.01    -0.02   0.08  -0.08
  15   6    -0.02  -0.06   0.10     0.05   0.05  -0.06    -0.05  -0.04   0.06
  16   6     0.00  -0.01  -0.02    -0.02   0.03  -0.01     0.05  -0.06   0.07
  17   6    -0.02   0.04  -0.10     0.02  -0.02   0.05    -0.03   0.02  -0.07
  18   6    -0.01   0.02  -0.02     0.01  -0.01   0.01    -0.02   0.02  -0.04
  19   1     0.04   0.09   0.03     0.06   0.11   0.03     0.06   0.10   0.03
  20   1     0.03   0.08   0.01     0.07   0.11   0.02     0.09   0.12   0.02
  21   1    -0.16  -0.03  -0.01    -0.18  -0.03  -0.01    -0.14  -0.02  -0.00
  22   1    -0.12   0.01  -0.15    -0.13  -0.00  -0.17    -0.10  -0.01  -0.14
  23   1     0.02   0.13   0.11     0.04   0.14   0.07     0.07   0.10   0.00
  24   1    -0.03   0.08  -0.04    -0.01   0.02  -0.01     0.00  -0.10   0.08
  25   1    -0.07  -0.08   0.02    -0.03  -0.03   0.02     0.04   0.06   0.01
  26   1    -0.04   0.09  -0.06    -0.03   0.09  -0.16     0.01   0.01  -0.13
  27   1     0.08   0.02   0.06     0.14   0.08   0.14     0.07   0.14   0.13
  28   1     0.02   0.01  -0.22    -0.04   0.07  -0.15    -0.05   0.07   0.07
  29   1     0.13   0.11   0.12     0.14  -0.00   0.09     0.03  -0.13  -0.04
  30   1     0.05  -0.06  -0.09     0.04  -0.08   0.14    -0.03   0.02   0.15
  31   1     0.02   0.10   0.06    -0.13  -0.00  -0.09    -0.07  -0.12  -0.11
  32   1    -0.07  -0.11  -0.08    -0.14  -0.02  -0.10     0.02   0.12   0.06
  33   1    -0.04   0.04   0.15     0.03  -0.07   0.17     0.06  -0.08  -0.09
  34   1    -0.04   0.03   0.16    -0.04   0.08  -0.12     0.04  -0.06  -0.13
  35   1    -0.09  -0.11  -0.10     0.13  -0.03   0.07     0.05   0.12   0.08
  36   1     0.04  -0.07  -0.06    -0.02   0.05  -0.18    -0.04   0.07   0.13
  37   1     0.00   0.09   0.03     0.15   0.03   0.11    -0.05  -0.11  -0.07
  38   1     0.14   0.09   0.11    -0.12   0.05  -0.06    -0.02  -0.12  -0.05
  39   1     0.02  -0.01  -0.19     0.04  -0.08   0.10    -0.05   0.08   0.10
  40   1     0.07  -0.05   0.03    -0.16  -0.04  -0.11     0.08   0.10   0.08
  41   1    -0.04   0.07  -0.04     0.01  -0.02   0.20     0.03  -0.06  -0.16
  42   1    -0.16  -0.03  -0.11     0.10  -0.06   0.04     0.00   0.10   0.04
  43   1     0.01  -0.03   0.18    -0.06   0.10  -0.08     0.07  -0.12  -0.04
  44   1    -0.15  -0.01  -0.09     0.15   0.05   0.11    -0.09  -0.09  -0.09
  45   1     0.00  -0.02   0.17    -0.00   0.00  -0.21    -0.00   0.02   0.16
  46   1    -0.15  -0.01  -0.04     0.02   0.05   0.02     0.09  -0.08  -0.00
  47   1     0.11   0.02  -0.11    -0.00  -0.01   0.00    -0.08   0.01   0.09
  48   1    -0.19   0.02  -0.04     0.10  -0.02   0.01    -0.06   0.07   0.01
  49   1     0.13   0.02  -0.12    -0.03   0.04   0.07    -0.00  -0.11  -0.07
  50   1     0.05   0.06   0.02     0.01  -0.04  -0.00    -0.08   0.08  -0.01
  51   1    -0.04  -0.07  -0.01    -0.02   0.04   0.04     0.07  -0.06  -0.09
  52   1     0.17  -0.08   0.03    -0.07   0.04  -0.01     0.07  -0.09  -0.00
  53   1    -0.13   0.02   0.14     0.05  -0.02  -0.06    -0.05   0.07   0.09
  54   1    -0.03   0.08   0.09     0.02  -0.05  -0.05    -0.03   0.10   0.09
  55   1     0.05  -0.11   0.00    -0.03   0.06  -0.00     0.05  -0.11  -0.00
  56   1     0.01  -0.02   0.04    -0.01   0.01  -0.02     0.02  -0.03   0.04
                     43                     44                     45
                        a                      a                      a 
 Frequencies --   867.9775               887.6390               893.2561
 Red. masses --     3.6849                 3.8361                 6.0974
 Frc consts  --     0.0000                 0.0000                 0.0000
 IR Inten    --     1.8709                 1.1002                 1.0519
 Raman Activ --     0.0000                 0.0000                 0.0000
 Depolar     --     0.0000                 0.0000                 0.0000
 Atom AN      X      Y      Z        X      Y      Z        X      Y      Z
   1   6    -0.11  -0.02   0.01     0.12  -0.03   0.08     0.16   0.15  -0.13
   2   6    -0.01   0.06   0.11    -0.01  -0.08   0.03    -0.02  -0.02  -0.31
   3   6     0.14   0.05  -0.04    -0.29   0.10  -0.11    -0.06  -0.29   0.24
   4   6     0.07  -0.04  -0.08    -0.02   0.02  -0.07    -0.02   0.14   0.20
   5   6    -0.06  -0.04   0.01     0.17   0.00   0.08    -0.02   0.10  -0.14
   6   6    -0.02   0.00   0.04    -0.05  -0.10  -0.01    -0.06   0.00   0.03
   7   6     0.05   0.05  -0.05    -0.03  -0.03   0.01    -0.03  -0.04   0.06
   8   6    -0.02   0.00  -0.01     0.08   0.07  -0.03     0.08   0.02  -0.07
   9   6    -0.06  -0.02   0.05    -0.04   0.00   0.01    -0.00  -0.00   0.01
  10   6     0.04   0.01  -0.03    -0.08  -0.04   0.03    -0.08  -0.04   0.04
  11   6     0.05  -0.02  -0.06     0.08   0.03  -0.04     0.06   0.03  -0.04
  12   6     0.02  -0.07   0.12     0.05  -0.01   0.01     0.05   0.01   0.00
  13   6    -0.06  -0.01  -0.03    -0.10  -0.09   0.01    -0.09  -0.08   0.01
  14   6    -0.10   0.15  -0.16    -0.06   0.03  -0.03    -0.05   0.02  -0.02
  15   6     0.03   0.01   0.03     0.07   0.03  -0.02     0.06   0.03  -0.02
  16   6     0.06  -0.07   0.18     0.01   0.00   0.07     0.00   0.01   0.05
  17   6    -0.05   0.04  -0.11    -0.01   0.01  -0.02    -0.01   0.01  -0.01
  18   6    -0.03   0.02  -0.09    -0.00  -0.00  -0.03    -0.00  -0.00  -0.03
  19   1    -0.05  -0.06  -0.01     0.23   0.21  -0.01    -0.19  -0.15   0.04
  20   1    -0.06  -0.07  -0.01    -0.10   0.05  -0.05     0.28   0.08   0.10
  21   1     0.07   0.01   0.00    -0.16  -0.01  -0.08     0.13   0.01   0.10
  22   1     0.05   0.01   0.07    -0.15  -0.02  -0.05     0.12   0.01  -0.07
  23   1    -0.05  -0.06   0.02     0.18   0.16  -0.02    -0.13  -0.12  -0.06
  24   1    -0.01   0.10  -0.08     0.04  -0.22   0.19    -0.06  -0.00   0.05
  25   1    -0.05  -0.07  -0.01     0.16   0.29  -0.01    -0.06  -0.15   0.04
  26   1    -0.03   0.03   0.04     0.08  -0.14   0.03     0.01   0.01   0.05
  27   1    -0.00  -0.09  -0.05    -0.06   0.00  -0.04    -0.09   0.18   0.06
  28   1     0.01  -0.01  -0.09     0.07  -0.09   0.14    -0.02  -0.01   0.09
  29   1     0.02   0.08   0.05    -0.06  -0.04  -0.04    -0.10  -0.02  -0.10
  30   1     0.04  -0.05  -0.03    -0.03   0.04  -0.11    -0.03   0.06  -0.06
  31   1    -0.02   0.08   0.03     0.10  -0.02   0.05     0.08  -0.04   0.04
  32   1    -0.06  -0.05  -0.07     0.07  -0.05   0.03     0.09  -0.05   0.05
  33   1    -0.01   0.01   0.10    -0.05   0.09  -0.05    -0.03   0.05  -0.06
  34   1    -0.04   0.06  -0.01    -0.00   0.01   0.13     0.01  -0.03   0.10
  35   1     0.04  -0.06   0.01    -0.09  -0.04  -0.07    -0.08  -0.03  -0.07
  36   1    -0.01   0.02  -0.09     0.05  -0.08  -0.03     0.05  -0.08  -0.00
  37   1     0.07   0.03   0.06    -0.03   0.10   0.02    -0.04   0.08   0.00
  38   1    -0.07   0.04  -0.04     0.04   0.09   0.06     0.04   0.08   0.06
  39   1     0.03  -0.05   0.05     0.03  -0.05  -0.10     0.02  -0.03  -0.10
  40   1    -0.08   0.01  -0.05    -0.04  -0.09  -0.05    -0.03  -0.09  -0.04
  41   1     0.02  -0.05   0.07    -0.03   0.06   0.10    -0.03   0.06   0.08
  42   1     0.11  -0.03   0.07     0.03  -0.11  -0.01     0.02  -0.10  -0.02
  43   1     0.02  -0.01  -0.06    -0.04   0.08   0.04    -0.04   0.07   0.05
  44   1     0.08  -0.07   0.02     0.09   0.03   0.06     0.07   0.03   0.06
  45   1    -0.00  -0.00  -0.06     0.01  -0.03  -0.13     0.01  -0.04  -0.12
  46   1     0.22  -0.06   0.03     0.06   0.03   0.02     0.04   0.03   0.02
  47   1    -0.18   0.04   0.19    -0.05   0.01   0.05    -0.04   0.01   0.03
  48   1     0.02   0.18   0.04     0.05   0.06   0.02     0.05   0.05   0.01
  49   1    -0.02  -0.17  -0.08    -0.00  -0.03  -0.00    -0.00  -0.01   0.00
  50   1    -0.19   0.14  -0.02    -0.07   0.03  -0.01    -0.05   0.02  -0.00
  51   1     0.16  -0.07  -0.18     0.05  -0.00  -0.05     0.04   0.00  -0.03
  52   1     0.09  -0.19  -0.02     0.01  -0.06  -0.01     0.00  -0.05  -0.01
  53   1    -0.07   0.14   0.14    -0.01   0.05   0.03    -0.00   0.03   0.02
[...]
 Frequencies --  2986.2176              2989.0626              2991.3082
 Red. masses --     1.5882                 1.6025                 1.5673
 Frc consts  --     0.0000                 0.0000                 0.0000
 IR Inten    --    60.0638                17.0938               208.3441
 Raman Activ --     0.0000                 0.0000                 0.0000
 Depolar     --     0.0000                 0.0000                 0.0000
 Atom AN      X      Y      Z        X      Y      Z        X      Y      Z
   1   6    -0.00  -0.00   0.01    -0.00  -0.00   0.02    -0.00   0.00   0.01
   2   6    -0.03  -0.00  -0.05    -0.06   0.01  -0.09    -0.03   0.01  -0.04
   3   6    -0.01  -0.01   0.00    -0.03  -0.01  -0.01    -0.02  -0.01  -0.01
   4   6    -0.01  -0.00   0.03    -0.05  -0.03   0.01    -0.05  -0.03  -0.02
   5   6    -0.04  -0.03   0.10    -0.03  -0.02   0.11    -0.02  -0.01   0.03
   6   6    -0.03  -0.02   0.01    -0.01  -0.01   0.06    -0.00  -0.00   0.03
   7   6    -0.04  -0.03  -0.03     0.00   0.00   0.05     0.01   0.01   0.04
   8   6    -0.04  -0.02  -0.07    -0.00   0.00   0.04     0.01   0.01   0.06
   9   6    -0.04  -0.03  -0.07    -0.00  -0.00   0.02     0.02   0.01   0.06
  10   6    -0.02  -0.01  -0.05    -0.01  -0.01  -0.00     0.01   0.01   0.07
  11   6     0.00   0.00  -0.02    -0.02  -0.01  -0.02     0.01   0.01   0.06
  12   6     0.07   0.04   0.04    -0.05  -0.03  -0.05     0.00   0.00   0.05
  13   6     0.01   0.01   0.02    -0.00  -0.00  -0.03    -0.01  -0.01   0.05
  14   6    -0.02  -0.00   0.03     0.03  -0.00  -0.03    -0.04   0.00   0.03
  15   6    -0.03   0.00   0.02     0.06  -0.02  -0.01    -0.10   0.03  -0.00
  16   6    -0.03   0.00   0.02     0.04  -0.01  -0.01    -0.05   0.01   0.01
  17   6    -0.03   0.01   0.02     0.03  -0.01  -0.01    -0.04   0.01   0.01
  18   6     0.01   0.00  -0.00    -0.01  -0.00   0.00     0.02   0.00  -0.00
  19   1    -0.02   0.01  -0.02    -0.03   0.03  -0.04    -0.02   0.01  -0.02
  20   1     0.01  -0.00  -0.02     0.02  -0.00  -0.04     0.01   0.00  -0.02
  21   1     0.00  -0.01  -0.00     0.00  -0.02  -0.00     0.00  -0.02  -0.00
  22   1    -0.03   0.13   0.04    -0.05   0.19   0.06    -0.02   0.08   0.03
  23   1     0.13  -0.12   0.14     0.25  -0.22   0.26     0.11  -0.10   0.11
  24   1     0.05   0.03   0.01     0.09   0.05   0.02     0.06   0.04   0.01
  25   1    -0.02   0.01  -0.02     0.01  -0.02   0.01     0.01  -0.02   0.02
  26   1    -0.04  -0.02  -0.00     0.16   0.10   0.04     0.21   0.14   0.04
  27   1     0.06   0.03  -0.11     0.02   0.01  -0.05    -0.03  -0.02   0.03
  28   1    -0.07  -0.05  -0.00    -0.09  -0.06  -0.01     0.00   0.00   0.01
  29   1     0.19   0.13  -0.37     0.20   0.14  -0.39     0.06   0.04  -0.11
  30   1     0.08   0.05   0.02    -0.06  -0.04  -0.01    -0.04  -0.02  -0.01
  31   1     0.02   0.02  -0.05     0.10   0.07  -0.19     0.05   0.03  -0.09
  32   1    -0.04  -0.02   0.07     0.09   0.06  -0.18     0.07   0.04  -0.13
  33   1     0.18   0.11   0.04    -0.10  -0.06  -0.01    -0.10  -0.06  -0.02
  34   1     0.23   0.14   0.04    -0.06  -0.04  -0.01    -0.13  -0.08  -0.02
  35   1    -0.10  -0.06   0.18     0.07   0.04  -0.13     0.10   0.06  -0.18
  36   1     0.25   0.15   0.03    -0.03  -0.02  -0.00    -0.16  -0.09  -0.02
  37   1    -0.11  -0.06   0.21     0.04   0.02  -0.07     0.10   0.05  -0.19
  38   1    -0.08  -0.04   0.16    -0.00  -0.00   0.01     0.11   0.06  -0.21
  39   1     0.13   0.08   0.02     0.04   0.02   0.01    -0.15  -0.09  -0.02
  40   1    -0.04  -0.02   0.09    -0.03  -0.01   0.05     0.10   0.04  -0.20
  41   1     0.04   0.02   0.00     0.08   0.04   0.01    -0.13  -0.07  -0.01
  42   1     0.06   0.03  -0.10    -0.07  -0.03   0.14     0.09   0.04  -0.18
  43   1    -0.30  -0.17  -0.04     0.24   0.13   0.03    -0.10  -0.06  -0.01
  44   1     0.03   0.01  -0.06    -0.05  -0.02   0.10     0.08   0.04  -0.16
  45   1    -0.05  -0.03  -0.01     0.05   0.03   0.00    -0.03  -0.02   0.00
  46   1     0.04   0.03  -0.12    -0.04  -0.03   0.13     0.05   0.04  -0.17
  47   1     0.03  -0.02   0.03    -0.04   0.03  -0.04     0.08  -0.05   0.06
  48   1     0.04   0.02  -0.12    -0.05  -0.03   0.16     0.07   0.04  -0.23
  49   1     0.04  -0.03   0.04    -0.16   0.09  -0.13     0.28  -0.16   0.24
  50   1     0.05   0.02  -0.13    -0.04  -0.02   0.12     0.05   0.02  -0.14
  51   1     0.06  -0.04   0.06    -0.08   0.05  -0.07     0.11  -0.06   0.09
  52   1     0.04   0.02  -0.13    -0.04  -0.02   0.12     0.05   0.03  -0.14
  53   1     0.07  -0.04   0.07    -0.08   0.05  -0.07     0.11  -0.06   0.09
  54   1    -0.01   0.01  -0.01     0.01  -0.01   0.01    -0.02   0.01  -0.02
  55   1    -0.01  -0.00   0.02     0.01   0.00  -0.02    -0.01  -0.00   0.03
  56   1    -0.02  -0.01  -0.00     0.02   0.02   0.00    -0.03  -0.02  -0.00
                    154                    155                    156
                        a                      a                      a 
 Frequencies --  2992.3857              2996.3537              2997.3813
 Red. masses --     1.6657                 1.6208                 1.5862
 Frc consts  --     0.0000                 0.0000                 0.0000
 IR Inten    --    40.4717                68.7018               355.1516
 Raman Activ --     0.0000                 0.0000                 0.0000
 Depolar     --     0.0000                 0.0000                 0.0000
 Atom AN      X      Y      Z        X      Y      Z        X      Y      Z
   1   6    -0.01   0.02  -0.01     0.00  -0.00   0.02     0.00  -0.00   0.03
   2   6     0.07  -0.03   0.11    -0.04   0.02  -0.05    -0.05   0.02  -0.08
   3   6    -0.01  -0.02   0.01    -0.02   0.00  -0.02    -0.04   0.00  -0.03
   4   6    -0.13  -0.09  -0.06    -0.04  -0.02  -0.04    -0.07  -0.04  -0.07
   5   6    -0.06  -0.04   0.06     0.00   0.00  -0.06    -0.01  -0.00  -0.10
   6   6    -0.03  -0.02  -0.00    -0.00  -0.00  -0.02    -0.01  -0.01  -0.05
   7   6    -0.02  -0.01   0.00     0.00   0.00  -0.01    -0.02  -0.01  -0.04
   8   6    -0.01  -0.01  -0.01     0.01   0.00   0.00    -0.01  -0.01  -0.03
   9   6    -0.01  -0.01  -0.00     0.01   0.01   0.01    -0.01  -0.01  -0.03
  10   6    -0.01  -0.00  -0.01     0.02   0.01   0.02    -0.02  -0.01  -0.03
  11   6    -0.00  -0.00  -0.00     0.04   0.02   0.02    -0.02  -0.01  -0.02
  12   6     0.00   0.00  -0.00     0.11   0.06   0.05    -0.06  -0.03  -0.04
  13   6     0.00   0.00  -0.00     0.04   0.02   0.02    -0.02  -0.01  -0.01
  14   6     0.01  -0.00  -0.00     0.03  -0.02   0.02    -0.02   0.01  -0.01
  15   6     0.02  -0.01   0.00     0.10  -0.04   0.04    -0.05   0.02  -0.02
  16   6     0.01  -0.00   0.00     0.03  -0.01   0.01    -0.01   0.01  -0.01
  17   6     0.01  -0.00  -0.00     0.03  -0.01   0.00    -0.01   0.00  -0.00
  18   6    -0.00  -0.00  -0.00    -0.01  -0.00  -0.00     0.01  -0.00   0.00
  19   1     0.05  -0.03   0.05    -0.03   0.03  -0.04    -0.05   0.04  -0.06
  20   1    -0.02   0.00   0.02     0.02  -0.00  -0.03     0.03  -0.00  -0.04
  21   1     0.01  -0.04  -0.02     0.00  -0.01  -0.00     0.01  -0.03  -0.00
  22   1     0.04  -0.16  -0.05    -0.02   0.08   0.02    -0.03   0.11   0.03
  23   1    -0.32   0.28  -0.34     0.16  -0.14   0.17     0.23  -0.20   0.24
  24   1     0.08   0.04   0.02     0.04   0.03   0.01     0.08   0.05   0.01
  25   1    -0.03   0.02  -0.03     0.04  -0.04   0.04     0.06  -0.06   0.06
  26   1     0.55   0.36   0.11     0.19   0.12   0.04     0.34   0.22   0.06
  27   1    -0.07  -0.05   0.10    -0.06  -0.03   0.10    -0.10  -0.06   0.17
  28   1     0.07   0.05   0.03     0.09   0.06   0.02     0.18   0.12   0.03
  29   1     0.12   0.08  -0.25    -0.10  -0.07   0.19    -0.17  -0.12   0.32
  30   1     0.12   0.08   0.03     0.04   0.03   0.01     0.12   0.08   0.03
  31   1    -0.00  -0.00  -0.01    -0.04  -0.02   0.07    -0.08  -0.05   0.14
  32   1     0.01   0.00  -0.02    -0.02  -0.01   0.04    -0.06  -0.04   0.11
  33   1     0.06   0.04   0.01     0.02   0.01   0.00     0.12   0.07   0.02
  34   1     0.06   0.04   0.01    -0.02  -0.01  -0.01     0.10   0.06   0.02
  35   1    -0.01  -0.01   0.02    -0.00   0.00   0.00    -0.05  -0.03   0.10
  36   1     0.04   0.02   0.01    -0.06  -0.04  -0.01     0.10   0.06   0.01
  37   1    -0.01  -0.00   0.01     0.01   0.01  -0.02    -0.04  -0.02   0.08
  38   1    -0.01  -0.00   0.02     0.03   0.02  -0.06    -0.04  -0.02   0.08
  39   1     0.03   0.02   0.00    -0.12  -0.07  -0.02     0.10   0.06   0.01
  40   1    -0.00  -0.00   0.01     0.03   0.01  -0.05    -0.03  -0.02   0.06
  41   1     0.01   0.01   0.00    -0.15  -0.09  -0.02     0.11   0.06   0.01
  42   1    -0.00  -0.00   0.00     0.08   0.04  -0.14    -0.05  -0.03   0.09
  43   1    -0.01  -0.01  -0.00    -0.47  -0.27  -0.06     0.26   0.15   0.03
  44   1    -0.00  -0.00   0.01     0.02   0.01  -0.04    -0.02  -0.01   0.04
  45   1    -0.01  -0.00  -0.00    -0.14  -0.09  -0.02     0.08   0.05   0.01
  46   1    -0.00  -0.00   0.01    -0.00  -0.01   0.02    -0.00   0.00   0.00
  47   1    -0.02   0.01  -0.01    -0.11   0.06  -0.08     0.05  -0.03   0.04
  48   1    -0.01  -0.01   0.03    -0.03  -0.03   0.12     0.01   0.01  -0.05
  49   1    -0.05   0.03  -0.04    -0.33   0.18  -0.27     0.15  -0.09   0.12
  50   1    -0.00  -0.00   0.01    -0.01  -0.01   0.04     0.00   0.00  -0.01
  51   1    -0.02   0.01  -0.01    -0.09   0.05  -0.08     0.04  -0.02   0.04
  52   1    -0.01  -0.00   0.02    -0.02  -0.01   0.06     0.01   0.00  -0.02
  53   1    -0.02   0.01  -0.01    -0.08   0.04  -0.07     0.03  -0.02   0.03
  54   1     0.00  -0.00   0.00     0.02  -0.01   0.02    -0.01   0.01  -0.01
  55   1     0.00   0.00  -0.00     0.00   0.00  -0.01     0.00  -0.00   0.00
  56   1     0.00   0.00   0.00     0.02   0.01   0.00    -0.01  -0.01   0.00
                    157                    158                    159
                        a                      a                      a 
 Frequencies --  3030.4581              3031.1086              3032.7513
 Red. masses --     1.9588                 1.9308                 1.9229
 Frc consts  --     0.0000                 0.0000                 0.0000
 IR Inten    --    61.0251                64.8194                61.3469
 Raman Activ --     0.0000                 0.0000                 0.0000
 Depolar     --     0.0000                 0.0000                 0.0000
 Atom AN      X      Y      Z        X      Y      Z        X      Y      Z
   1   6     0.00  -0.00   0.00     0.04  -0.08   0.27    -0.00   0.00   0.00
   2   6     0.00  -0.00   0.00     0.02  -0.01   0.04    -0.00   0.00  -0.00
   3   6     0.00  -0.00   0.00     0.01  -0.00   0.01    -0.00  -0.00   0.00
   4   6     0.00   0.00  -0.00     0.01   0.00   0.00    -0.00  -0.00   0.00
   5   6    -0.00  -0.00  -0.00     0.00  -0.00   0.00    -0.00  -0.00   0.00
   6   6    -0.00  -0.00  -0.00     0.00   0.00   0.00    -0.00  -0.00   0.00
   7   6    -0.00  -0.00  -0.00     0.00   0.00   0.00    -0.00  -0.00   0.00
   8   6    -0.00  -0.00  -0.00    -0.00   0.00   0.00    -0.00  -0.00   0.00
   9   6    -0.00  -0.00  -0.00    -0.00   0.00   0.00    -0.00  -0.00   0.00
  10   6    -0.00  -0.00  -0.00    -0.00   0.00   0.00    -0.00  -0.00   0.00
  11   6    -0.00  -0.00  -0.00    -0.00  -0.00   0.00    -0.00  -0.00   0.00
  12   6    -0.00  -0.00  -0.00     0.00   0.00   0.00    -0.00  -0.00   0.00
  13   6     0.00   0.00  -0.00    -0.00  -0.00   0.00    -0.00  -0.00   0.00
  14   6    -0.00   0.00  -0.00    -0.00  -0.00   0.00    -0.00   0.00   0.00
  15   6    -0.00   0.00  -0.01     0.00  -0.00   0.00    -0.01   0.00   0.00
  16   6    -0.00   0.00  -0.01     0.00  -0.00   0.00    -0.01   0.00   0.00
  17   6    -0.01   0.02  -0.04     0.00  -0.00   0.00    -0.03   0.00   0.01
  18   6    -0.07   0.10  -0.26     0.00  -0.00   0.00    -0.27  -0.08   0.04
  19   1    -0.01   0.00  -0.01    -0.44   0.35  -0.51     0.00  -0.00   0.00
  20   1     0.00  -0.00  -0.01     0.29  -0.02  -0.48     0.00   0.00  -0.00
  21   1     0.00  -0.00   0.00     0.01  -0.06   0.03     0.00  -0.00  -0.00
  22   1     0.00  -0.00  -0.00     0.01  -0.04  -0.01     0.00  -0.00  -0.00
  23   1    -0.00   0.00  -0.00    -0.09   0.08  -0.09     0.00  -0.00   0.00
  24   1    -0.00  -0.00  -0.00    -0.02  -0.01  -0.00     0.00   0.00   0.00
  25   1    -0.00   0.00  -0.00    -0.02   0.02  -0.03    -0.00   0.00  -0.00
  26   1    -0.00  -0.00  -0.00    -0.02  -0.02  -0.01     0.00   0.00   0.00
  27   1    -0.00  -0.00   0.00     0.01   0.00  -0.01     0.00   0.00  -0.00
  28   1     0.00   0.00   0.00    -0.01  -0.01  -0.00     0.00   0.00   0.00
  29   1    -0.00  -0.00   0.00     0.01   0.01  -0.02     0.00   0.00  -0.00
  30   1     0.00   0.00   0.00    -0.00  -0.00  -0.00     0.00   0.00   0.00
  31   1    -0.00  -0.00   0.00     0.00   0.00  -0.01     0.00   0.00  -0.00
  32   1    -0.00  -0.00   0.00     0.00   0.00  -0.00     0.00   0.00  -0.00
  33   1     0.00   0.00   0.00    -0.00  -0.00  -0.00     0.00   0.00   0.00
  34   1     0.00   0.00   0.00    -0.00  -0.00  -0.00     0.00   0.00   0.00
  35   1    -0.00  -0.00   0.00     0.00   0.00  -0.00     0.00   0.00  -0.00
  36   1     0.00   0.00   0.00    -0.00  -0.00  -0.00     0.00   0.00   0.00
  37   1    -0.00  -0.00   0.00     0.00   0.00  -0.00     0.00   0.00  -0.00
  38   1    -0.00  -0.00   0.00     0.00   0.00  -0.00     0.00   0.00  -0.00
  39   1     0.00   0.00   0.00    -0.00  -0.00  -0.00     0.00   0.00   0.00
  40   1    -0.00  -0.00   0.00     0.00   0.00  -0.00     0.00   0.00  -0.00
  41   1     0.00   0.00   0.00    -0.00  -0.00  -0.00     0.00   0.00   0.00
  42   1    -0.00  -0.00   0.00     0.00   0.00  -0.00     0.00   0.00  -0.00
  43   1     0.00   0.00   0.00    -0.00  -0.00  -0.00     0.00   0.00   0.00
  44   1    -0.00  -0.00   0.00     0.00   0.00  -0.00     0.00   0.00  -0.00
  45   1     0.00   0.00   0.00    -0.00  -0.00  -0.00     0.00   0.00   0.00
  46   1    -0.00  -0.00   0.01     0.00   0.00  -0.00     0.00   0.00  -0.01
  47   1     0.00  -0.00   0.00    -0.00   0.00  -0.00     0.01  -0.00   0.01
  48   1    -0.00  -0.00   0.01     0.00   0.00  -0.00     0.00   0.00  -0.01
  49   1     0.01  -0.01   0.01    -0.00   0.00  -0.00     0.01  -0.01   0.01
  50   1    -0.01  -0.01   0.03     0.00   0.00  -0.00     0.02   0.01  -0.05
  51   1     0.02  -0.01   0.02    -0.00   0.00  -0.00     0.03  -0.02   0.03
  52   1    -0.03  -0.01   0.08     0.00   0.00  -0.00     0.03   0.02  -0.08
  53   1     0.06  -0.03   0.05    -0.00   0.00  -0.00     0.05  -0.03   0.05
  54   1     0.50  -0.28   0.37    -0.01   0.00  -0.00     0.31  -0.21   0.28
  55   1    -0.25  -0.09   0.60     0.00   0.00  -0.01     0.14   0.06  -0.47
  56   1    -0.00   0.02  -0.04     0.00  -0.00   0.00     0.51   0.42   0.03
                    160                    161                    162
                        a                      a                      a 
 Frequencies --  3033.6781              3038.1877              3045.9486
 Red. masses --     1.7268                 1.2683                 1.4914
 Frc consts  --     0.0000                 0.0000                 0.0000
 IR Inten    --    51.1789                33.2570                34.2048
 Raman Activ --     0.0000                 0.0000                 0.0000
 Depolar     --     0.0000                 0.0000                 0.0000
 Atom AN      X      Y      Z        X      Y      Z        X      Y      Z
   1   6     0.19  -0.15  -0.09    -0.00   0.00   0.00     0.02   0.20   0.03
   2   6     0.02  -0.03  -0.00    -0.00   0.00  -0.00    -0.00   0.02   0.00
   3   6     0.00  -0.00   0.00    -0.00   0.00  -0.00     0.00   0.00   0.00
   4   6    -0.00  -0.00  -0.00     0.00   0.00  -0.00     0.01   0.01   0.00
   5   6    -0.00  -0.00   0.00     0.00   0.00   0.00     0.00   0.00  -0.00
   6   6    -0.00  -0.00   0.00     0.00   0.00  -0.00     0.00   0.00   0.00
   7   6    -0.00  -0.00   0.00     0.00   0.00   0.00     0.00   0.00  -0.00
   8   6    -0.00  -0.00   0.00     0.00   0.00  -0.00     0.00   0.00   0.00
   9   6    -0.00  -0.00  -0.00     0.00   0.00   0.00     0.00   0.00  -0.00
  10   6    -0.00  -0.00   0.00     0.00   0.00  -0.00     0.00   0.00  -0.00
  11   6    -0.00  -0.00  -0.00     0.00   0.00   0.00     0.00   0.00  -0.00
  12   6     0.00  -0.00   0.00     0.00   0.00  -0.00     0.00   0.00  -0.00
  13   6    -0.00  -0.00  -0.00     0.00   0.00   0.00     0.00   0.00   0.00
  14   6    -0.00   0.00  -0.00     0.00  -0.00  -0.00     0.00  -0.00  -0.00
  15   6    -0.00   0.00  -0.00    -0.00  -0.00   0.00     0.00  -0.00   0.00
  16   6    -0.00   0.00  -0.00     0.00  -0.00  -0.00     0.00  -0.00  -0.00
  17   6    -0.00   0.00  -0.00     0.00  -0.01  -0.00     0.00  -0.00   0.00
  18   6    -0.00  -0.00  -0.00    -0.01  -0.14  -0.05     0.00  -0.00  -0.00
  19   1    -0.29   0.24  -0.41     0.00  -0.00   0.00    -0.09   0.10  -0.11
  20   1    -0.34  -0.02   0.64     0.00   0.00  -0.00    -0.15   0.03   0.27
  21   1    -0.03   0.29   0.08    -0.00  -0.00  -0.00     0.16  -0.86  -0.26
  22   1    -0.01   0.06   0.03     0.00  -0.00  -0.00     0.01  -0.05  -0.02
  23   1    -0.03   0.02  -0.03     0.00  -0.00   0.00     0.01  -0.01   0.01
  24   1     0.00   0.00   0.00    -0.00  -0.00  -0.00    -0.01  -0.01  -0.00
  25   1    -0.01   0.01  -0.01     0.00  -0.00   0.00     0.00  -0.00   0.00
  26   1     0.02   0.01   0.00     0.00   0.00   0.00    -0.04  -0.03  -0.01
  27   1    -0.00  -0.00   0.00    -0.00  -0.00   0.00     0.00   0.00   0.00
  28   1    -0.00  -0.00   0.00    -0.00  -0.00  -0.00    -0.01  -0.00  -0.00
  29   1     0.01   0.01  -0.01     0.00  -0.00   0.00    -0.00  -0.00   0.00
  30   1     0.00   0.00   0.00     0.00   0.00  -0.00    -0.00  -0.00  -0.00
  31   1     0.00   0.00  -0.00    -0.00  -0.00   0.00    -0.00   0.00   0.00
  32   1     0.00   0.00  -0.00     0.00   0.00  -0.00    -0.00  -0.00   0.00
  33   1     0.00   0.00   0.00    -0.00  -0.00  -0.00    -0.00  -0.00  -0.00
  34   1    -0.00  -0.00   0.00     0.00   0.00  -0.00    -0.00  -0.00  -0.00
  35   1     0.00   0.00  -0.00    -0.00  -0.00   0.00    -0.00  -0.00   0.00
  36   1     0.00   0.00   0.00    -0.00  -0.00  -0.00    -0.00  -0.00  -0.00
  37   1    -0.00  -0.00   0.00     0.00   0.00  -0.00    -0.00  -0.00   0.00
  38   1     0.00   0.00  -0.00    -0.00  -0.00   0.00    -0.00  -0.00   0.00
  39   1    -0.00  -0.00  -0.00    -0.00  -0.00  -0.00    -0.00  -0.00  -0.00
  40   1    -0.00  -0.00   0.00     0.00   0.00  -0.00    -0.00  -0.00   0.00
  41   1     0.00   0.00   0.00    -0.00  -0.00  -0.00    -0.00  -0.00  -0.00
  42   1     0.00   0.00  -0.00    -0.00  -0.00   0.00    -0.00  -0.00   0.00
  43   1    -0.00  -0.00  -0.00    -0.00  -0.00  -0.00    -0.00  -0.00  -0.00
  44   1    -0.00  -0.00   0.00     0.00   0.00  -0.00     0.00   0.00   0.00
  45   1     0.00   0.00   0.00    -0.00  -0.00  -0.00    -0.00  -0.00  -0.00
  46   1     0.00   0.00  -0.00    -0.00  -0.00   0.00    -0.00  -0.00   0.00
  47   1     0.00  -0.00   0.00    -0.00   0.00  -0.00    -0.00   0.00  -0.00
  48   1    -0.00   0.00  -0.00     0.00   0.00   0.00    -0.00  -0.00   0.00
  49   1     0.00  -0.00   0.00    -0.00   0.00  -0.00    -0.00   0.00  -0.00
  50   1     0.00   0.00  -0.00    -0.00  -0.00   0.01    -0.00  -0.00   0.00
  51   1     0.00  -0.00   0.00    -0.01   0.00  -0.01    -0.00   0.00  -0.00
  52   1     0.00   0.00  -0.00    -0.00  -0.00   0.01    -0.00  -0.00   0.00
  53   1     0.00  -0.00   0.00    -0.00   0.00  -0.01    -0.00   0.00  -0.00
  54   1     0.00  -0.00   0.00    -0.35   0.18  -0.28    -0.00   0.00  -0.00
  55   1    -0.00  -0.00   0.00    -0.18  -0.09   0.45    -0.00  -0.00   0.00
  56   1     0.00   0.00   0.00     0.56   0.42   0.02     0.00   0.00   0.00
