      -----------------------------------------------------------      
     |                   =====================                   |     
     |                           x T B                           |     
     |                   =====================                   |     
     |                         S. Grimme                         |     
     |          Mulliken Center for Theoretical Chemistry        |     
     |                    University of Bonn                     |     
      -----------------------------------------------------------      

   * xtb version 6.6.1 (8d0f1dd) compiled by 'stahn@M-Bot' on 2023-08-01

   xtb is free software: you can redistribute it and/or modify it under
   the terms of the GNU Lesser General Public License as published by
   the Free Software Foundation, either version 3 of the License, or
   (at your option) any later version.
   
   xtb is distributed in the hope that it will be useful,
   but WITHOUT ANY WARRANTY; without even the implied warranty of
   MERCHANTABILITY or FITNESS FOR A PARTICULAR PURPOSE.  See the
   GNU Lesser General Public License for more details.
   
   Cite this work as:
   * C. Bannwarth, E. Caldeweyher, S. Ehlert, A. Hansen, P. Pracht,
     J. Seibert, S. Spicher, S. Grimme, WIREs Comput. Mol. Sci., 2020, 11,
     e01493. DOI: 10.1002/wcms.1493
   
   for GFN2-xTB:
   * C. Bannwarth, S. Ehlert and S. Grimme., J. Chem. Theory Comput., 2019,
     15, 1652-1671. DOI: 10.1021/acs.jctc.8b01176
   for GFN1-xTB:
   * S. Grimme, C. Bannwarth, P. Shushkov, J. Chem. Theory Comput., 2017,
     13, 1989-2009. DOI: 10.1021/acs.jctc.7b00118
   for GFN0-xTB:
   * P. Pracht, E. Caldeweyher, S. Ehlert, S. Grimme, ChemRxiv, 2019, preprint.
     DOI: 10.26434/chemrxiv.8326202.v1
   for GFN-FF:
   * S. Spicher and S. Grimme, Angew. Chem. Int. Ed., 2020, 59, 15665-15673.
     DOI: 10.1002/anie.202004239
   
   for ALPB and GBSA implicit solvation:
   * S. Ehlert, M. Stahn, S. Spicher, S. Grimme, J. Chem. Theory Comput.,
     2021, 17, 4250-4261. DOI: 10.1021/acs.jctc.1c00471
   
   for DFT-D4:
   * E. Caldeweyher, C. Bannwarth and S. Grimme, J. Chem. Phys., 2017,
     147, 034112. DOI: 10.1063/1.4993215
   * E. Caldeweyher, S. Ehlert, A. Hansen, H. Neugebauer, S. Spicher,
     C. Bannwarth and S. Grimme, J. Chem. Phys., 2019, 150, 154122.
     DOI: 10.1063/1.5090222
   * E. Caldeweyher, J.-M. Mewes, S. Ehlert and S. Grimme, Phys. Chem. Chem. Phys.
     2020, 22, 8499-8512. DOI: 10.1039/D0CP00502A
   
   for sTDA-xTB:
   * S. Grimme and C. Bannwarth, J. Chem. Phys., 2016, 145, 054103.
     DOI: 10.1063/1.4959605
   
   in the mass-spec context:
   * V. Asgeirsson, C. Bauer and S. Grimme, Chem. Sci., 2017, 8, 4879.
     DOI: 10.1039/c7sc00601b
   * J. Koopman and S. Grimme, ACS Omega 2019, 4, 12, 15120-15133.
     DOI: 10.1021/acsomega.9b02011
   
   for metadynamics refer to:
   * S. Grimme, J. Chem. Theory Comput., 2019, 155, 2847-2862
     DOI: 10.1021/acs.jctc.9b00143
   
   for SPH calculations refer to:
   * S. Spicher and S. Grimme, J. Chem. Theory Comput., 2021, 17, 1701-1714
     DOI: 10.1021/acs.jctc.0c01306
   
   with help from (in alphabetical order)
   P. Atkinson, C. Bannwarth, F. Bohle, G. Brandenburg, E. Caldeweyher
   M. Checinski, S. Dohm, S. Ehlert, S. Ehrlich, I. Gerasimov, C. Hölzer
   A. Katbashev, J. Koopman, C. Lavigne, S. Lehtola, F. März, M. Müller,
   F. Musil, H. Neugebauer, J. Pisarek, C. Plett, P. Pracht, F. Pultar,
   J. Seibert, P. Shushkov, S. Spicher, M. Stahn, M. Steiner, T. Strunk,
   J. Stückrath, T. Rose, and J. Unsleber
   
 * started run on 2024/04/23 at 12:11:03.099     

           -------------------------------------------------
          |                Calculation Setup                |
           -------------------------------------------------

          program call               : xtb unfolded.xyz --gfn 2 --ohess -P 4
          coordinate file            : unfolded.xyz
          omp threads                :                     4

   ID    Z sym.   atoms
    1    6 C      1-18
    2    1 H      19-56

           -------------------------------------------------
          |                 G F N 2 - x T B                 |
           -------------------------------------------------

        Reference                      10.1021/acs.jctc.8b01176
      * Hamiltonian:
        H0-scaling (s, p, d)           1.850000    2.230000    2.230000
        zeta-weighting                 0.500000
      * Dispersion:
        s8                             2.700000
        a1                             0.520000
        a2                             5.000000
        s9                             5.000000
      * Repulsion:
        kExp                           1.500000    1.000000
        rExp                           1.000000
      * Coulomb:
        alpha                          2.000000
        third order                    shell-resolved
        anisotropic                    true
        a3                             3.000000
        a5                             4.000000
        cn-shift                       1.200000
        cn-exp                         4.000000
        max-rad                        5.000000


          ...................................................
          :                      SETUP                      :
          :.................................................:
          :  # basis functions                 110          :
          :  # atomic orbitals                 110          :
          :  # shells                           74          :
          :  # electrons                       110          :
          :  max. iterations                   250          :
          :  Hamiltonian                  GFN2-xTB          :
          :  restarted?                      false          :
          :  GBSA solvation                  false          :
          :  PC potential                    false          :
          :  electronic temp.          300.0000000     K    :
          :  accuracy                    1.0000000          :
          :  -> integral cutoff          0.2500000E+02      :
          :  -> integral neglect         0.1000000E-07      :
          :  -> SCF convergence          0.1000000E-05 Eh   :
          :  -> wf. convergence          0.1000000E-03 e    :
          :  Broyden damping             0.4000000          :
          ...................................................

 iter      E             dE          RMSdq      gap      omega  full diag
   1    -58.6510615 -0.586511E+02  0.246E+00   11.73       0.0  T
   2    -58.7969876 -0.145926E+00  0.131E+00   11.74       1.0  T
   3    -58.7989254 -0.193787E-02  0.699E-01   11.73       1.0  T
   4    -58.7993424 -0.416969E-03  0.812E-02   11.77       1.0  T
   5    -58.7993529 -0.105357E-04  0.414E-02   11.77       1.0  T
   6    -58.7993562 -0.322219E-05  0.331E-03   11.77       4.0  T
   7    -58.7993563 -0.131521E-06  0.108E-03   11.77      12.4  T
   8    -58.7993563 -0.612830E-08  0.347E-04   11.77      38.5  T
   9    -58.7993563 -0.677275E-09  0.103E-04   11.77     129.5  T

   *** convergence criteria satisfied after 9 iterations ***

         #    Occupation            Energy/Eh            Energy/eV
      -------------------------------------------------------------
         1        2.0000           -0.6223726             -16.9356
       ...           ...                  ...                  ...
        49        2.0000           -0.4192189             -11.4075
        50        2.0000           -0.4179164             -11.3721
        51        2.0000           -0.4163484             -11.3294
        52        2.0000           -0.4145584             -11.2807
        53        2.0000           -0.4123196             -11.2198
        54        2.0000           -0.4103904             -11.1673
        55        2.0000           -0.4082090             -11.1079 (HOMO)
        56                          0.0242689               0.6604 (LUMO)
        57                          0.0495883               1.3494
        58                          0.0673633               1.8330
        59                          0.0844710               2.2986
        60                          0.0916940               2.4951
       ...                                ...                  ...
       110                          0.3114182               8.4741
      -------------------------------------------------------------
                  HL-Gap            0.4324780 Eh           11.7683 eV
             Fermi-level           -0.1919700 Eh           -5.2238 eV

 SCC (total)                   0 d,  0 h,  0 min,  0.047 sec
 SCC setup                      ...        0 min,  0.001 sec (  1.068%)
 Dispersion                     ...        0 min,  0.001 sec (  1.290%)
 classical contributions        ...        0 min,  0.000 sec (  0.127%)
 integral evaluation            ...        0 min,  0.002 sec (  4.854%)
 iterations                     ...        0 min,  0.035 sec ( 74.548%)
 molecular gradient             ...        0 min,  0.008 sec ( 17.199%)
 printout                       ...        0 min,  0.000 sec (  0.837%)

         :::::::::::::::::::::::::::::::::::::::::::::::::::::
         ::                     SUMMARY                     ::
         :::::::::::::::::::::::::::::::::::::::::::::::::::::
         :: total energy             -57.960113391559 Eh    ::
         :: gradient norm              0.037802121976 Eh/a0 ::
         :: HOMO-LUMO gap             11.768324612836 eV    ::
         ::.................................................::
         :: SCC energy               -58.799356288879 Eh    ::
         :: -> isotropic ES            0.008763329096 Eh    ::
         :: -> anisotropic ES          0.018929590504 Eh    ::
         :: -> anisotropic XC          0.034074926375 Eh    ::
         :: -> dispersion             -0.038153826046 Eh    ::
         :: repulsion energy           0.839590014401 Eh    ::
         :: add. restraining           0.000000000000 Eh    ::
         :: total charge               0.000000000000 e     ::
         :::::::::::::::::::::::::::::::::::::::::::::::::::::

      ----------------------------------------------------------- 
     |                   =====================                   |
     |                        A N C O P T                        |
     |                   =====================                   |
     |               Approximate Normal Coordinate               |
     |                Rational Function Optimizer                |
      ----------------------------------------------------------- 

          ...................................................
          :                      SETUP                      :
          :.................................................:
          :   optimization level            normal          :
          :   max. optcycles                   200          :
          :   ANC micro-cycles                  20          :
          :   degrees of freedom               162          :
          :.................................................:
          :   RF solver                   davidson          :
          :   write xtbopt.log                true          :
          :   linear?                        false          :
          :   energy convergence         0.5000000E-05 Eh   :
          :   grad. convergence          0.1000000E-02 Eh/α :
          :   maxmium RF displ.          2.0000000          :
          :   Hlow (freq-cutoff)         0.2000000E-01      :
          :   Hmax (freq-cutoff)         5.0000000          :
          :   S6 in model hess.         70.0000000          :
          ...................................................

generating ANC from model Hessian ...
Using Lindh-Hessian (1995)
 Shifting diagonal of input Hessian by   1.988866200061087E-002
 Lowest  eigenvalues of input Hessian
    0.000000    0.000000    0.000000    0.000000    0.000000    0.000000
    0.020000    0.020269    0.020404    0.020961    0.021072    0.022245
    0.022502    0.022917    0.023201    0.023532    0.024497    0.024611
 Highest eigenvalues
    1.254136    1.272789    1.285862    1.308365    1.326103    1.341342
 

........................................................................
.............................. CYCLE    1 ..............................
........................................................................

 iter      E             dE          RMSdq      gap      omega  full diag
   1    -58.7993563 -0.587994E+02  0.259E-05   11.77       0.0  T
   2    -58.7993563 -0.427747E-11  0.145E-05   11.77     918.4  T
   3    -58.7993563 -0.255795E-12  0.629E-06   11.77    2125.2  T
     SCC iter.                  ...        0 min,  0.006 sec
     gradient                   ...        0 min,  0.009 sec
 * total energy  :   -57.9601134 Eh     change       -0.2521006E-10 Eh
   gradient norm :     0.0378019 Eh/α   predicted     0.0000000E+00 (-100.00%)
   displ. norm   :     0.2112240 α      lambda       -0.4653626E-02
   maximum displ.:     0.1041686 α      in ANC's #75, #72, #74, ...

........................................................................
.............................. CYCLE    2 ..............................
........................................................................

 iter      E             dE          RMSdq      gap      omega  full diag
   1    -58.8134700 -0.588135E+02  0.128E-01   11.79       0.0  T
   2    -58.8134769 -0.692691E-05  0.734E-02   11.79       1.0  T
   3    -58.8134783 -0.131379E-05  0.335E-03   11.79       4.0  T
   4    -58.8134783 -0.730877E-07  0.126E-03   11.79      10.6  T
   5    -58.8134783 -0.250130E-08  0.634E-04   11.79      21.1  T
   6    -58.8134783 -0.690044E-09  0.443E-05   11.79     301.7  T
     SCC iter.                  ...        0 min,  0.009 sec
     gradient                   ...        0 min,  0.008 sec
 * total energy  :   -57.9632229 Eh     change       -0.3109551E-02 Eh
   gradient norm :     0.0173226 Eh/α   predicted    -0.2430654E-02 ( -21.83%)
   displ. norm   :     0.1384001 α      lambda       -0.1011389E-02
   maximum displ.:     0.0639374 α      in ANC's #9, #75, #72, ...

........................................................................
.............................. CYCLE    3 ..............................
........................................................................

 iter      E             dE          RMSdq      gap      omega  full diag
   1    -58.8238833 -0.588239E+02  0.648E-02   11.82       0.0  T
   2    -58.8238880 -0.464784E-05  0.366E-02   11.82       1.0  T
   3    -58.8238882 -0.251022E-06  0.360E-03   11.82       3.7  T
   4    -58.8238883 -0.384233E-07  0.664E-04   11.82      20.1  T
   5    -58.8238883 -0.200487E-08  0.374E-04   11.82      35.8  T
     SCC iter.                  ...        0 min,  0.009 sec
     gradient                   ...        0 min,  0.008 sec
 * total energy  :   -57.9637917 Eh     change       -0.5687831E-03 Eh
   gradient norm :     0.0026266 Eh/α   predicted    -0.5154083E-03 (  -9.38%)
   displ. norm   :     0.0634327 α      lambda       -0.8354774E-04
   maximum displ.:     0.0404799 α      in ANC's #9, #10, #17, ...

........................................................................
.............................. CYCLE    4 ..............................
........................................................................

 iter      E             dE          RMSdq      gap      omega  full diag
   1    -58.8264337 -0.588264E+02  0.134E-02   11.85       0.0  T
   2    -58.8264339 -0.218469E-06  0.765E-03   11.85       1.7  T
   3    -58.8264339 -0.649317E-08  0.857E-04   11.85      15.6  T
   4    -58.8264340 -0.181601E-08  0.156E-04   11.85      85.5  T
     SCC iter.                  ...        0 min,  0.007 sec
     gradient                   ...        0 min,  0.008 sec
 * total energy  :   -57.9638592 Eh     change       -0.6746864E-04 Eh
   gradient norm :     0.0019273 Eh/α   predicted    -0.4344714E-04 ( -35.60%)
   displ. norm   :     0.1828539 α      lambda       -0.1113002E-03
   maximum displ.:     0.1195889 α      in ANC's #9, #10, #17, ...

........................................................................
.............................. CYCLE    5 ..............................
........................................................................

 iter      E             dE          RMSdq      gap      omega  full diag
   1    -58.8299520 -0.588300E+02  0.324E-02   11.94       0.0  T
   2    -58.8299523 -0.298766E-06  0.188E-02   11.94       1.0  T
   3    -58.8299524 -0.516226E-07  0.925E-04   11.94      14.4  T
   4    -58.8299524 -0.522358E-08  0.416E-04   11.94      32.1  T
     SCC iter.                  ...        0 min,  0.006 sec
     gradient                   ...        0 min,  0.008 sec
 * total energy  :   -57.9639355 Eh     change       -0.7633578E-04 Eh
   gradient norm :     0.0043553 Eh/α   predicted    -0.5647790E-04 ( -26.01%)
   displ. norm   :     0.0158119 α      lambda       -0.2130425E-04
   maximum displ.:     0.0057412 α      in ANC's #9, #22, #29, ...

........................................................................
.............................. CYCLE    6 ..............................
........................................................................

 iter      E             dE          RMSdq      gap      omega  full diag
   1    -58.8289145 -0.588289E+02  0.407E-03   11.94       0.0  T
   2    -58.8289146 -0.941749E-07  0.228E-03   11.94       5.9  T
   3    -58.8289146 -0.117704E-08  0.661E-04   11.94      20.2  T
   4    -58.8289146 -0.344990E-09  0.668E-05   11.94     200.0  T
     SCC iter.                  ...        0 min,  0.006 sec
     gradient                   ...        0 min,  0.008 sec
 * total energy  :   -57.9639526 Eh     change       -0.1702822E-04 Eh
   gradient norm :     0.0021274 Eh/α   predicted    -0.1067724E-04 ( -37.30%)
   displ. norm   :     0.0415413 α      lambda       -0.2492827E-04
   maximum displ.:     0.0175064 α      in ANC's #9, #22, #7, ...

........................................................................
.............................. CYCLE    7 ..............................
........................................................................

 iter      E             dE          RMSdq      gap      omega  full diag
   1    -58.8275930 -0.588276E+02  0.641E-03   11.96       0.0  T
   2    -58.8275932 -0.182834E-06  0.372E-03   11.96       3.6  T
   3    -58.8275932 -0.290020E-08  0.909E-04   11.96      14.7  T
   4    -58.8275932 -0.942755E-09  0.112E-04   11.96     119.8  T
     SCC iter.                  ...        0 min,  0.006 sec
     gradient                   ...        0 min,  0.010 sec
 * total energy  :   -57.9639675 Eh     change       -0.1496911E-04 Eh
   gradient norm :     0.0011651 Eh/α   predicted    -0.1249079E-04 ( -16.56%)
   displ. norm   :     0.0408085 α      lambda       -0.6277729E-05
   maximum displ.:     0.0160386 α      in ANC's #9, #22, #5, ...

........................................................................
.............................. CYCLE    8 ..............................
........................................................................

 iter      E             dE          RMSdq      gap      omega  full diag
   1    -58.8274583 -0.588275E+02  0.483E-03   11.96       0.0  T
   2    -58.8274583 -0.951237E-08  0.289E-03   11.96       4.6  T
   3    -58.8274583 -0.117911E-08  0.152E-04   11.96      87.7  T
   4    -58.8274583 -0.244185E-09  0.692E-05   11.96     193.2  T
     SCC iter.                  ...        0 min,  0.006 sec
     gradient                   ...        0 min,  0.008 sec
 * total energy  :   -57.9639746 Eh     change       -0.7082289E-05 Eh
   gradient norm :     0.0017626 Eh/α   predicted    -0.3141664E-05 ( -55.64%)
   displ. norm   :     0.0699841 α      lambda       -0.1041736E-04
   maximum displ.:     0.0276911 α      in ANC's #5, #22, #9, ...

........................................................................
.............................. CYCLE    9 ..............................
........................................................................

 iter      E             dE          RMSdq      gap      omega  full diag
   1    -58.8281181 -0.588281E+02  0.861E-03   11.96       0.0  T
   2    -58.8281181 -0.353342E-07  0.511E-03   11.96       2.6  T
   3    -58.8281181 -0.291102E-08  0.293E-04   11.96      45.6  T
   4    -58.8281181 -0.544269E-09  0.105E-04   11.96     127.7  T
     SCC iter.                  ...        0 min,  0.007 sec
     gradient                   ...        0 min,  0.008 sec
 * total energy  :   -57.9639850 Eh     change       -0.1036182E-04 Eh
   gradient norm :     0.0007593 Eh/α   predicted    -0.5221549E-05 ( -49.61%)
   displ. norm   :     0.0474766 α      lambda       -0.4603650E-05
   maximum displ.:     0.0242907 α      in ANC's #5, #2, #21, ...

........................................................................
.............................. CYCLE   10 ..............................
........................................................................

 iter      E             dE          RMSdq      gap      omega  full diag
   1    -58.8284650 -0.588285E+02  0.552E-03   11.96       0.0  T
   2    -58.8284650 -0.146146E-07  0.329E-03   11.96       4.1  T
   3    -58.8284650 -0.101603E-08  0.173E-04   11.96      77.0  T
   4    -58.8284650 -0.242942E-09  0.652E-05   11.96     204.9  T
     SCC iter.                  ...        0 min,  0.006 sec
     gradient                   ...        0 min,  0.008 sec
 * total energy  :   -57.9639902 Eh     change       -0.5247757E-05 Eh
   gradient norm :     0.0003835 Eh/α   predicted    -0.2304509E-05 ( -56.09%)
   displ. norm   :     0.0739218 α      lambda       -0.6213309E-05
   maximum displ.:     0.0414661 α      in ANC's #5, #2, #21, ...

........................................................................
.............................. CYCLE   11 ..............................
........................................................................

 iter      E             dE          RMSdq      gap      omega  full diag
   1    -58.8286211 -0.588286E+02  0.790E-03   11.96       0.0  T
   2    -58.8286211 -0.115538E-07  0.472E-03   11.96       2.8  T
   3    -58.8286211 -0.214457E-08  0.185E-04   11.96      72.1  T
   4    -58.8286211 -0.329301E-09  0.929E-05   11.96     143.8  T
     SCC iter.                  ...        0 min,  0.008 sec
     gradient                   ...        0 min,  0.008 sec
 * total energy  :   -57.9639971 Eh     change       -0.6881987E-05 Eh
   gradient norm :     0.0008364 Eh/α   predicted    -0.3117330E-05 ( -54.70%)
   displ. norm   :     0.0889619 α      lambda       -0.6444867E-05
   maximum displ.:     0.0515843 α      in ANC's #5, #2, #1, ...

........................................................................
.............................. CYCLE   12 ..............................
........................................................................

 iter      E             dE          RMSdq      gap      omega  full diag
   1    -58.8285230 -0.588285E+02  0.885E-03   11.95       0.0  T
   2    -58.8285230 -0.901309E-08  0.529E-03   11.95       2.5  T
   3    -58.8285230 -0.289279E-08  0.207E-04   11.95      64.6  T
   4    -58.8285230 -0.362057E-09  0.107E-04   11.95     124.5  T
     SCC iter.                  ...        0 min,  0.006 sec
     gradient                   ...        0 min,  0.009 sec
 * total energy  :   -57.9640039 Eh     change       -0.6838150E-05 Eh
   gradient norm :     0.0009134 Eh/α   predicted    -0.3236391E-05 ( -52.67%)
   displ. norm   :     0.0676423 α      lambda       -0.4337395E-05
   maximum displ.:     0.0388655 α      in ANC's #5, #2, #1, ...

........................................................................
.............................. CYCLE   13 ..............................
........................................................................

 iter      E             dE          RMSdq      gap      omega  full diag
   1    -58.8282517 -0.588283E+02  0.626E-03   11.95       0.0  T
   2    -58.8282517 -0.106762E-07  0.372E-03   11.95       3.6  T
   3    -58.8282517 -0.178103E-08  0.182E-04   11.95      73.2  T
   4    -58.8282517 -0.239368E-09  0.821E-05   11.95     162.8  T
     SCC iter.                  ...        0 min,  0.008 sec
     gradient                   ...        0 min,  0.008 sec
 * total energy  :   -57.9640084 Eh     change       -0.4435365E-05 Eh
   gradient norm :     0.0005020 Eh/α   predicted    -0.2174963E-05 ( -50.96%)
   displ. norm   :     0.0377502 α      lambda       -0.2183132E-05
   maximum displ.:     0.0194734 α      in ANC's #5, #2, #1, ...

   *** GEOMETRY OPTIMIZATION CONVERGED AFTER 13 ITERATIONS ***

------------------------------------------------------------------------
 total energy gain   :        -0.0038950 Eh       -2.4441 kcal/mol
 total RMSD          :         0.0958519 a0        0.0507 Å
 total power (kW/mol):        -0.7866366 (step)  -38.5355 (real)
------------------------------------------------------------------------

 ANCopt (total)                0 d,  0 h,  0 min,  0.265 sec
 optimizer setup                ...        0 min,  0.001 sec (  0.314%)
 model hessian                  ...        0 min,  0.022 sec (  8.220%)
 ANC generation                 ...        0 min,  0.002 sec (  0.792%)
 coordinate transformation      ...        0 min,  0.000 sec (  0.149%)
 single point calculation       ...        0 min,  0.235 sec ( 88.582%)
 optimization log               ...        0 min,  0.002 sec (  0.851%)
 hessian update                 ...        0 min,  0.000 sec (  0.121%)
 rational function              ...        0 min,  0.001 sec (  0.441%)

================
 final structure:
================
56
 xtb: 6.6.1 (8d0f1dd)
C            5.52334829365809       -6.47055535649210       -1.42049978297384
C            4.19669198896940       -7.20595436644287       -1.57230601571093
C            3.45922616501074       -7.39948966239774       -0.24595644256982
C            3.07023317525527       -6.10549101013272        0.47104148294725
C            2.08491496862974       -5.24605377695055       -0.31720540500899
C            1.65313448895786       -4.01057505264733        0.46928832907798
C            0.68522691662070       -3.13670000971172       -0.32470793414132
C            0.30969890859273       -1.86199121589263        0.42679678372024
C           -0.64914945130654       -0.98616628221151       -0.37593522011667
C           -0.97667908110474        0.32022515320348        0.34280203930297
C           -1.93211506589968        1.19500184493811       -0.46543531114997
C           -2.21821669862379        2.52520849051150        0.22745392771927
C           -3.17116237916407        3.39690560697098       -0.58741397572862
C           -3.52357966623356        4.71766307344553        0.09830668461093
C           -2.35112803956263        5.69321368373642        0.17633656689547
C           -2.76824989234373        7.03509322119999        0.77354322644885
C           -1.60089295350975        8.01544316864385        0.85844557851001
C           -2.02438118941157        9.35074953414019        1.45821680729239
H            6.14401313160056       -6.95743438441064       -0.67125512130342
H            6.06386942527661       -6.46802059535409       -2.36449346270087
H            5.36599436878781       -5.43811429746309       -1.11983336455001
H            4.38757393533877       -8.19346490099629       -2.00013802090795
H            3.55948963588848       -6.66665188718358       -2.27495498597739
H            2.55350819082950       -7.98181452665763       -0.43395255286053
H            4.09492205380503       -7.98671594913562        0.42187646959752
H            3.96582858590766       -5.52175580940051        0.68971833400801
H            2.61515933903647       -6.37037294491760        1.42910491179019
H            1.20434185987558       -5.84276180191653       -0.56734504096040
H            2.54355133360920       -4.92224935653769       -1.25296200627690
H            2.53745529130199       -3.42316930042691        0.72875122736923
H            1.17876329696882       -4.32015477300210        1.40358563504290
H            1.14479653566651       -2.86706737882747       -1.27881328045471
H           -0.21984459929975       -3.70743976565173       -0.54554619618882
H            1.21733645594447       -1.29441977468108        0.64611016588698
H           -0.15208260020547       -2.12569166098309        1.38114019118333
H           -1.57314959266102       -1.53839042636687       -0.56267911889637
H           -0.20041884687094       -0.75840482252833       -1.34588471436972
H           -1.42383810757138        0.09753125237830        1.31444008285787
H           -0.05103018383496        0.87155708079869        0.52506223195018
H           -1.49705073290241        1.38895109477884       -1.44886635138534
H           -2.87020889709790        0.65691837738694       -0.62133476810659
H           -2.65608768686096        2.33405660907883        1.21006074071323
H           -1.27514989906206        3.05236755544392        0.38047905950747
H           -2.72470715955583        3.60610749286047       -1.56246810300496
H           -4.09315308203705        2.83643607197179       -0.76180100818667
H           -3.89180904492480        4.51339694921103        1.10645386995228
H           -4.33525683094662        5.19365951851105       -0.45789066392656
H           -1.95001024121176        5.85464881807648       -0.82724170363205
H           -1.55423605857760        5.26687722012461        0.78797598215690
H           -3.17555229903364        6.87295526338718        1.77447516675742
H           -3.56146743187495        7.47263428180541        0.16235713467847
H           -1.19478619795193        8.17954547187999       -0.14239294861661
H           -0.80716755589555        7.57890845857359        1.46917670075651
H           -2.80304626605801        9.81014636731261        0.85310404915296
H           -2.41291244982321        9.20986408410262        2.46455829238499
H           -1.18024716411404       10.03458934484722        1.50856582743411
           -------------------------------------------------
          |                Final Singlepoint                |
           -------------------------------------------------

          ...................................................
          :                      SETUP                      :
          :.................................................:
          :  # basis functions                 110          :
          :  # atomic orbitals                 110          :
          :  # shells                           74          :
          :  # electrons                       110          :
          :  max. iterations                   250          :
          :  Hamiltonian                  GFN2-xTB          :
          :  restarted?                      false          :
          :  GBSA solvation                  false          :
          :  PC potential                    false          :
          :  electronic temp.          300.0000000     K    :
          :  accuracy                    1.0000000          :
          :  -> integral cutoff          0.2500000E+02      :
          :  -> integral neglect         0.1000000E-07      :
          :  -> SCF convergence          0.1000000E-05 Eh   :
          :  -> wf. convergence          0.1000000E-03 e    :
          :  Broyden damping             0.4000000          :
          ...................................................

 iter      E             dE          RMSdq      gap      omega  full diag
   1    -58.8282517 -0.588283E+02  0.279E-05   11.95       0.0  T
   2    -58.8282517 -0.302691E-11  0.159E-05   11.95     841.7  T
   3    -58.8282517 -0.149214E-12  0.517E-06   11.95    2582.9  T

   *** convergence criteria satisfied after 3 iterations ***

         #    Occupation            Energy/Eh            Energy/eV
      -------------------------------------------------------------
         1        2.0000           -0.6232991             -16.9608
       ...           ...                  ...                  ...
        49        2.0000           -0.4189714             -11.4008
        50        2.0000           -0.4185471             -11.3892
        51        2.0000           -0.4171121             -11.3502
        52        2.0000           -0.4165327             -11.3344
        53        2.0000           -0.4132817             -11.2460
        54        2.0000           -0.4117034             -11.2030
        55        2.0000           -0.4063291             -11.0568 (HOMO)
        56                          0.0327019               0.8899 (LUMO)
        57                          0.0577614               1.5718
        58                          0.0754679               2.0536
        59                          0.0946706               2.5761
        60                          0.1025944               2.7917
       ...                                ...                  ...
       110                          0.3285592               8.9405
      -------------------------------------------------------------
                  HL-Gap            0.4390310 Eh           11.9466 eV
             Fermi-level           -0.1868136 Eh           -5.0835 eV

 SCC (total)                   0 d,  0 h,  0 min,  0.017 sec
 SCC setup                      ...        0 min,  0.000 sec (  2.359%)
 Dispersion                     ...        0 min,  0.000 sec (  1.404%)
 classical contributions        ...        0 min,  0.000 sec (  0.354%)
 integral evaluation            ...        0 min,  0.002 sec ( 10.756%)
 iterations                     ...        0 min,  0.006 sec ( 34.752%)
 molecular gradient             ...        0 min,  0.008 sec ( 47.632%)
 printout                       ...        0 min,  0.000 sec (  2.538%)

         :::::::::::::::::::::::::::::::::::::::::::::::::::::
         ::                     SUMMARY                     ::
         :::::::::::::::::::::::::::::::::::::::::::::::::::::
         :: total energy             -57.964008374482 Eh    ::
         :: gradient norm              0.000501899586 Eh/a0 ::
         :: HOMO-LUMO gap             11.946641111669 eV    ::
         ::.................................................::
         :: SCC energy               -58.828251736166 Eh    ::
         :: -> isotropic ES            0.009392229430 Eh    ::
         :: -> anisotropic ES          0.018205803365 Eh    ::
         :: -> anisotropic XC          0.034615659745 Eh    ::
         :: -> dispersion             -0.038274730172 Eh    ::
         :: repulsion energy           0.864605408781 Eh    ::
         :: add. restraining           0.000000000000 Eh    ::
         :: total charge               0.000000000000 e     ::
         :::::::::::::::::::::::::::::::::::::::::::::::::::::

           ------------------------------------------------- 
          |                Numerical Hessian                |
           ------------------------------------------------- 
step length          :   0.00500
SCC accuracy         :   0.30000
Hessian scale factor :   1.00000
frozen atoms in %    :   0.00000    0
RMS gradient         :   0.00050
estimated CPU  time      0.83 min
estimated wall time      0.21 min

writing file <hessian>.

 projected vibrational frequencies (cm⁻¹)
eigval :       -0.00    -0.00    -0.00     0.00     0.00     0.00
eigval :        9.28    15.28    23.31    32.23    38.99    41.30
eigval :       47.23    71.55    79.15    84.21   108.74   110.15
eigval :      119.87   120.71   138.01   144.66   150.36   154.90
eigval :      179.92   198.88   233.31   250.22   262.66   271.11
eigval :      311.66   340.52   379.38   390.93   420.48   458.24
eigval :      485.61   508.77   534.41   759.87   765.80   768.64
eigval :      771.56   778.65   790.99   800.55   823.50   852.76
eigval :      867.98   887.64   893.26   927.25   940.02   958.33
eigval :      968.57   998.47   999.89  1015.69  1030.73  1034.22
eigval :     1046.70  1055.58  1056.34  1077.71  1086.86  1091.51
eigval :     1098.85  1102.55  1109.99  1112.34  1115.72  1129.01
eigval :     1136.32  1143.11  1149.47  1159.02  1173.87  1207.20
eigval :     1214.85  1218.06  1231.63  1238.35  1250.41  1253.72
eigval :     1260.31  1266.80  1270.40  1272.93  1280.47  1282.72
eigval :     1286.25  1288.77  1291.26  1296.92  1298.20  1299.38
eigval :     1312.39  1324.23  1336.46  1351.46  1359.88  1363.12
eigval :     1367.36  1372.81  1377.08  1378.64  1379.03  1380.28
eigval :     1415.11  1416.04  1487.90  1490.92  1491.33  1494.23
eigval :     1495.16  1495.82  1496.49  1497.66  1498.16  1499.70
eigval :     1500.57  1500.92  1501.35  1502.31  1503.25  1504.71
eigval :     1505.47  1507.36  1507.99  1517.36  2953.19  2953.94
eigval :     2954.97  2955.94  2956.85  2957.21  2957.33  2958.02
eigval :     2960.73  2963.46  2965.41  2966.03  2970.05  2971.82
eigval :     2972.58  2973.27  2973.68  2974.65  2974.90  2975.50
eigval :     2977.06  2978.15  2979.59  2980.36  2981.64  2984.25
eigval :     2986.22  2989.06  2991.31  2992.39  2996.35  2997.38
eigval :     3030.46  3031.11  3032.75  3033.68  3038.19  3045.95
           -------------------------------------------------
          |                Property Printout                |
           -------------------------------------------------

    * Orbital Energies and Occupations

         #    Occupation            Energy/Eh            Energy/eV
      -------------------------------------------------------------
         1        2.0000           -0.6232991             -16.9608
       ...           ...                  ...                  ...
        43        2.0000           -0.4326350             -11.7726
        44        2.0000           -0.4293611             -11.6835
        45        2.0000           -0.4276276             -11.6363
        46        2.0000           -0.4261724             -11.5967
        47        2.0000           -0.4224241             -11.4947
        48        2.0000           -0.4204363             -11.4407
        49        2.0000           -0.4189714             -11.4008
        50        2.0000           -0.4185471             -11.3892
        51        2.0000           -0.4171121             -11.3502
        52        2.0000           -0.4165327             -11.3344
        53        2.0000           -0.4132817             -11.2460
        54        2.0000           -0.4117034             -11.2030
        55        2.0000           -0.4063291             -11.0568 (HOMO)
        56                          0.0327019               0.8899 (LUMO)
        57                          0.0577614               1.5718
        58                          0.0754679               2.0536
        59                          0.0946706               2.5761
        60                          0.1025944               2.7917
        61                          0.1094291               2.9777
        62                          0.1115947               3.0366
        63                          0.1123581               3.0574
        64                          0.1148217               3.1245
        65                          0.1171607               3.1881
        66                          0.1205217               3.2796
       ...                                ...                  ...
       110                          0.3285592               8.9405
      -------------------------------------------------------------
                  HL-Gap            0.4390310 Eh           11.9466 eV
             Fermi-level           -0.1868136 Eh           -5.0835 eV

     #   Z          covCN         q      C6AA      α(0)
     1   6 C        3.751    -0.101    22.490     6.763
     2   6 C        3.799    -0.052    21.516     6.604
     3   6 C        3.801    -0.058    21.609     6.618
     4   6 C        3.802    -0.058    21.613     6.619
     5   6 C        3.802    -0.058    21.618     6.620
     6   6 C        3.803    -0.058    21.617     6.619
     7   6 C        3.803    -0.058    21.617     6.619
     8   6 C        3.803    -0.058    21.619     6.620
     9   6 C        3.803    -0.058    21.621     6.620
    10   6 C        3.803    -0.058    21.618     6.619
    11   6 C        3.803    -0.058    21.624     6.620
    12   6 C        3.802    -0.059    21.629     6.621
    13   6 C        3.802    -0.058    21.620     6.620
    14   6 C        3.802    -0.058    21.618     6.620
    15   6 C        3.802    -0.059    21.629     6.621
    16   6 C        3.803    -0.059    21.636     6.622
    17   6 C        3.801    -0.053    21.521     6.605
    18   6 C        3.752    -0.102    22.510     6.766
    19   1 H        0.925     0.033     2.550     2.497
    20   1 H        0.925     0.030     2.590     2.517
    21   1 H        0.925     0.036     2.508     2.476
    22   1 H        0.924     0.026     2.641     2.542
    23   1 H        0.924     0.031     2.577     2.510
    24   1 H        0.924     0.027     2.628     2.535
    25   1 H        0.924     0.029     2.603     2.523
    26   1 H        0.924     0.033     2.545     2.495
    27   1 H        0.924     0.026     2.637     2.540
    28   1 H        0.924     0.028     2.615     2.529
    29   1 H        0.924     0.032     2.554     2.499
    30   1 H        0.924     0.028     2.616     2.529
    31   1 H        0.924     0.028     2.620     2.531
    32   1 H        0.924     0.029     2.604     2.524
    33   1 H        0.924     0.029     2.606     2.524
    34   1 H        0.924     0.029     2.601     2.522
    35   1 H        0.924     0.029     2.604     2.524
    36   1 H        0.924     0.029     2.603     2.523
    37   1 H        0.924     0.029     2.600     2.521
    38   1 H        0.924     0.029     2.602     2.523
    39   1 H        0.924     0.029     2.601     2.522
    40   1 H        0.924     0.029     2.606     2.524
    41   1 H        0.924     0.028     2.613     2.528
    42   1 H        0.924     0.029     2.596     2.520
    43   1 H        0.924     0.031     2.567     2.505
    44   1 H        0.924     0.030     2.591     2.517
    45   1 H        0.924     0.028     2.610     2.526
    46   1 H        0.924     0.030     2.592     2.518
    47   1 H        0.924     0.029     2.607     2.525
    48   1 H        0.924     0.029     2.601     2.522
    49   1 H        0.924     0.031     2.578     2.511
    50   1 H        0.924     0.029     2.598     2.520
    51   1 H        0.924     0.029     2.603     2.523
    52   1 H        0.924     0.028     2.610     2.526
    53   1 H        0.924     0.028     2.611     2.527
    54   1 H        0.925     0.033     2.543     2.494
    55   1 H        0.925     0.033     2.543     2.494
    56   1 H        0.925     0.032     2.552     2.498

 Mol. C6AA /au·bohr⁶  :      20974.025825
 Mol. C8AA /au·bohr⁸  :     439327.171166
 Mol. α(0) /au        :        215.103702


Wiberg/Mayer (AO) data.
largest (>0.10) Wiberg bond orders for each atom

 ---------------------------------------------------------------------------
     #   Z sym  total        # sym  WBO       # sym  WBO       # sym  WBO
 ---------------------------------------------------------------------------
     1   6 C    3.997 --     2 C    1.020    19 H    0.988    20 H    0.988
                            21 H    0.986
     2   6 C    3.998 --     1 C    1.020     3 C    1.008    22 H    0.979
                            23 H    0.976
     3   6 C    3.997 --     2 C    1.008     4 C    1.007    24 H    0.978
                            25 H    0.977
     4   6 C    3.997 --     5 C    1.008     3 C    1.007    27 H    0.977
                            26 H    0.975
     5   6 C    3.997 --     4 C    1.008     6 C    1.007    28 H    0.978
                            29 H    0.975
     6   6 C    3.997 --     7 C    1.007     5 C    1.007    31 H    0.978
                            30 H    0.977
     7   6 C    3.997 --     6 C    1.007     8 C    1.007    33 H    0.978
                            32 H    0.977
     8   6 C    3.997 --     7 C    1.007     9 C    1.007    35 H    0.978
                            34 H    0.977
     9   6 C    3.997 --    10 C    1.007     8 C    1.007    36 H    0.978
                            37 H    0.977
    10   6 C    3.997 --     9 C    1.007    11 C    1.007    38 H    0.978
                            39 H    0.977
    11   6 C    3.997 --    10 C    1.007    12 C    1.007    41 H    0.978
                            40 H    0.977
    12   6 C    3.997 --    13 C    1.008    11 C    1.007    42 H    0.977
                            43 H    0.975
    13   6 C    3.997 --    12 C    1.008    14 C    1.006    45 H    0.977
                            44 H    0.977
    14   6 C    3.997 --    15 C    1.008    13 C    1.006    46 H    0.977
                            47 H    0.977
    15   6 C    3.998 --    14 C    1.008    16 C    1.007    48 H    0.977
                            49 H    0.976
    16   6 C    3.997 --    17 C    1.008    15 C    1.007    50 H    0.978
                            51 H    0.977
    17   6 C    3.998 --    18 C    1.019    16 C    1.008    52 H    0.979
                            53 H    0.979
    18   6 C    3.997 --    17 C    1.019    55 H    0.988    54 H    0.988
                            56 H    0.988
    19   1 H    0.999 --     1 C    0.988
    20   1 H    0.999 --     1 C    0.988
    21   1 H    0.999 --     1 C    0.986
    22   1 H    0.999 --     2 C    0.979
    23   1 H    0.999 --     2 C    0.976
    24   1 H    0.999 --     3 C    0.978
    25   1 H    0.999 --     3 C    0.977
    26   1 H    0.999 --     4 C    0.975
    27   1 H    0.999 --     4 C    0.977
    28   1 H    0.999 --     5 C    0.978
    29   1 H    0.999 --     5 C    0.975
    30   1 H    0.999 --     6 C    0.977
    31   1 H    0.999 --     6 C    0.978
    32   1 H    0.999 --     7 C    0.977
    33   1 H    0.999 --     7 C    0.978
    34   1 H    0.999 --     8 C    0.977
    35   1 H    0.999 --     8 C    0.978
    36   1 H    0.999 --     9 C    0.978
    37   1 H    0.999 --     9 C    0.977
    38   1 H    0.999 --    10 C    0.978
    39   1 H    0.999 --    10 C    0.977
    40   1 H    0.999 --    11 C    0.977
    41   1 H    0.999 --    11 C    0.978
    42   1 H    0.999 --    12 C    0.977
    43   1 H    0.999 --    12 C    0.975
    44   1 H    0.999 --    13 C    0.977
    45   1 H    0.999 --    13 C    0.977
    46   1 H    0.999 --    14 C    0.977
    47   1 H    0.999 --    14 C    0.977
    48   1 H    0.999 --    15 C    0.977
    49   1 H    0.999 --    15 C    0.976
    50   1 H    0.999 --    16 C    0.978
    51   1 H    0.999 --    16 C    0.977
    52   1 H    0.999 --    17 C    0.979
    53   1 H    0.999 --    17 C    0.979
    54   1 H    0.999 --    18 C    0.988
    55   1 H    0.999 --    18 C    0.988
    56   1 H    0.999 --    18 C    0.988
 ---------------------------------------------------------------------------

Topologies differ in total number of bonds
Writing topology from bond orders to xtbtopo.mol

molecular dipole:
                 x           y           z       tot (Debye)
 q only:        0.024       0.012      -0.003
   full:        0.013       0.009      -0.000       0.041
molecular quadrupole (traceless):
                xx          xy          yy          xz          yz          zz
 q only:        0.014      -0.576       0.315       0.108       0.401      -0.329
  q+dip:        1.059       1.647      -2.632      -0.523      -1.472       1.574
   full:        0.528       0.583      -1.149      -0.250      -0.600       0.621

           -------------------------------------------------
          |                Geometry Summary                 |
           -------------------------------------------------

      molecular mass/u    :      254.4949947
   center of mass at/Å    :        0.0007762       0.0015047      -0.0002733
  moments of inertia/u·Å² :        0.4775311E+03   0.9145595E+04   0.9397395E+04
rotational constants/cm⁻¹ :        0.3530164E-01   0.1843252E-02   0.1793862E-02

 * 55 selected distances

     #   Z          #   Z                                           value/Å
     1   6 C        2   6 C                                       1.5244259
     2   6 C        3   6 C                                       1.5298743 (max)
     3   6 C        4   6 C                                       1.5296518
     4   6 C        5   6 C                                       1.5267016
     5   6 C        6   6 C                                       1.5268971
     6   6 C        7   6 C                                       1.5267394
     7   6 C        8   6 C                                       1.5266511
     8   6 C        9   6 C                                       1.5267084
     9   6 C       10   6 C                                       1.5266034
    10   6 C       11   6 C                                       1.5268727
    11   6 C       12   6 C                                       1.5268922
    12   6 C       13   6 C                                       1.5270794
    13   6 C       14   6 C                                       1.5293173
    14   6 C       15   6 C                                       1.5272298
    15   6 C       16   6 C                                       1.5268554
    16   6 C       17   6 C                                       1.5267669
    17   6 C       18   6 C                                       1.5238475
     1   6 C       19   1 H                                       1.0879540
     1   6 C       20   1 H                                       1.0877931
     1   6 C       21   1 H                                       1.0867821 (min)
     2   6 C       22   1 H                                       1.0930020
     2   6 C       23   1 H                                       1.0911415
     3   6 C       24   1 H                                       1.0930554
     3   6 C       25   1 H                                       1.0931354
     4   6 C       26   1 H                                       1.0911726
     4   6 C       27   1 H                                       1.0932248
     5   6 C       28   1 H                                       1.0927212
     5   6 C       29   1 H                                       1.0912549
     6   6 C       30   1 H                                       1.0928815
     6   6 C       31   1 H                                       1.0926021
     7   6 C       32   1 H                                       1.0928052
     7   6 C       33   1 H                                       1.0925512
     8   6 C       34   1 H                                       1.0927222
     8   6 C       35   1 H                                       1.0924979
     9   6 C       36   1 H                                       1.0925206
     9   6 C       37   1 H                                       1.0927199
    10   6 C       38   1 H                                       1.0925312
    10   6 C       39   1 H                                       1.0927085
    11   6 C       40   1 H                                       1.0927187
    11   6 C       41   1 H                                       1.0926384
    12   6 C       42   1 H                                       1.0926053
    12   6 C       43   1 H                                       1.0911868
    13   6 C       44   1 H                                       1.0926200
    13   6 C       45   1 H                                       1.0929794
    14   6 C       46   1 H                                       1.0925559
    14   6 C       47   1 H                                       1.0930454
    15   6 C       48   1 H                                       1.0927609
    15   6 C       49   1 H                                       1.0912848
    16   6 C       50   1 H                                       1.0927255
    16   6 C       51   1 H                                       1.0927877
    17   6 C       52   1 H                                       1.0924881
    17   6 C       53   1 H                                       1.0924996
    18   6 C       54   1 H                                       1.0879000
    18   6 C       55   1 H                                       1.0879010
    18   6 C       56   1 H                                       1.0875359

 * 2 distinct bonds (by element types)

   Z      Z             #   av. dist./Å        max./Å        min./Å
   1 H    6 C          38     1.0917371     1.0932248     1.0867821
   6 C    6 C          17     1.5270067     1.5298743     1.5238475

           -------------------------------------------------
          |               Frequency Printout                |
           -------------------------------------------------
 projected vibrational frequencies (cm⁻¹)
eigval :       -0.00    -0.00    -0.00     0.00     0.00     0.00
eigval :        9.28    15.28    23.31    32.23    38.99    41.30
eigval :       47.23    71.55    79.15    84.21   108.74   110.15
eigval :      119.87   120.71   138.01   144.66   150.36   154.90
eigval :      179.92   198.88   233.31   250.22   262.66   271.11
eigval :      311.66   340.52   379.38   390.93   420.48   458.24
eigval :      485.61   508.77   534.41   759.87   765.80   768.64
eigval :      771.56   778.65   790.99   800.55   823.50   852.76
eigval :      867.98   887.64   893.26   927.25   940.02   958.33
eigval :      968.57   998.47   999.89  1015.69  1030.73  1034.22
eigval :     1046.70  1055.58  1056.34  1077.71  1086.86  1091.51
eigval :     1098.85  1102.55  1109.99  1112.34  1115.72  1129.01
eigval :     1136.32  1143.11  1149.47  1159.02  1173.87  1207.20
eigval :     1214.85  1218.06  1231.63  1238.35  1250.41  1253.72
eigval :     1260.31  1266.80  1270.40  1272.93  1280.47  1282.72
eigval :     1286.25  1288.77  1291.26  1296.92  1298.20  1299.38
eigval :     1312.39  1324.23  1336.46  1351.46  1359.88  1363.12
eigval :     1367.36  1372.81  1377.08  1378.64  1379.03  1380.28
eigval :     1415.11  1416.04  1487.90  1490.92  1491.33  1494.23
eigval :     1495.16  1495.82  1496.49  1497.66  1498.16  1499.70
eigval :     1500.57  1500.92  1501.35  1502.31  1503.25  1504.71
eigval :     1505.47  1507.36  1507.99  1517.36  2953.19  2953.94
eigval :     2954.97  2955.94  2956.85  2957.21  2957.33  2958.02
eigval :     2960.73  2963.46  2965.41  2966.03  2970.05  2971.82
eigval :     2972.58  2973.27  2973.68  2974.65  2974.90  2975.50
eigval :     2977.06  2978.15  2979.59  2980.36  2981.64  2984.25
eigval :     2986.22  2989.06  2991.31  2992.39  2996.35  2997.38
eigval :     3030.46  3031.11  3032.75  3033.68  3038.19  3045.95
 reduced masses (amu)
   1: 10.22   2: 10.32   3: 10.34   4: 10.32   5:  9.80   6:  9.36   7:  9.64   8:  8.81
   9:  9.09  10:  7.44  11:  7.07  12:  7.94  13:  8.59  14:  8.63  15:  6.35  16:  8.71
  17:  8.41  18:  7.20  19:  7.16  20:  6.56  21:  8.83  22:  7.98  23:  6.91  24:  7.52
  25:  6.43  26:  7.90  27:  2.26  28:  8.75  29:  6.14  30:  7.29  31:  8.54  32:  8.88
  33:  8.38  34:  9.41  35:  8.67  36:  8.67  37:  9.09  38:  8.65  39:  8.70  40:  2.31
  41:  1.88  42:  1.63  43:  1.79  44:  2.21  45:  2.48  46:  2.58  47:  3.25  48:  4.08
  49:  3.68  50:  3.84  51:  6.10  52:  4.43  53:  6.17  54:  4.64  55:  4.89  56:  4.75
  57:  6.42  58:  4.09  59:  3.72  60:  7.69  61:  8.56  62:  5.41  63:  8.57  64:  9.24
  65:  8.92  66:  8.92  67:  8.05  68:  7.46  69:  8.45  70:  7.91  71:  7.63  72:  8.05
  73:  7.42  74:  8.17  75:  7.08  76:  7.26  77:  6.76  78:  6.10  79:  4.84  80:  4.28
  81:  4.57  82:  4.10  83:  3.65  84:  3.69  85:  3.47  86:  3.22  87:  1.31  88:  3.06
  89:  2.31  90:  2.04  91:  2.26  92:  2.63  93:  2.30  94:  2.04  95:  2.46  96:  2.26
  97:  3.35  98:  3.72  99:  3.93 100:  4.37 101:  4.35 102:  4.74 103:  4.70 104:  4.83
 105:  5.77 106:  5.61 107:  5.47 108:  5.57 109:  3.23 110:  3.18 111:  1.85 112:  1.91
 113:  1.92 114:  1.95 115:  1.93 116:  1.90 117:  1.98 118:  1.84 119:  1.98 120:  1.99
 121:  2.00 122:  1.86 123:  1.74 124:  2.03 125:  1.82 126:  1.53 127:  1.73 128:  1.71
 129:  1.65 130:  1.67 131:  1.88 132:  1.90 133:  1.89 134:  1.91 135:  1.91 136:  1.93
 137:  1.94 138:  1.88 139:  1.94 140:  1.85 141:  1.92 142:  1.94 143:  1.82 144:  1.59
 145:  1.53 146:  1.69 147:  1.50 148:  1.55 149:  1.62 150:  1.56 151:  1.61 152:  1.53
 153:  1.52 154:  1.67 155:  1.67 156:  1.94 157:  1.59 158:  1.60 159:  1.57 160:  1.67
 161:  1.62 162:  1.59 163:  1.96 164:  1.93 165:  1.92 166:  1.73 167:  1.27 168:  1.49
 IR intensities (km·mol⁻¹)
   1:  0.00   2:  0.00   3:  0.00   4:  0.00   5:  0.00   6:  0.00   7:  0.00   8:  0.00
   9:  0.01  10:  0.00  11:  0.00  12:  0.00  13:  0.00  14:  0.00  15:  0.01  16:  0.00
  17:  0.02  18:  0.00  19:  0.01  20:  0.01  21:  0.05  22:  0.01  23:  0.00  24:  0.05
  25:  0.11  26:  0.03  27:  0.00  28:  0.04  29:  0.00  30:  0.04  31:  0.03  32:  0.16
  33:  0.41  34:  0.03  35:  0.35  36:  0.49  37:  0.04  38:  0.34  39:  0.57  40: 12.95
  41: 14.35  42: 10.06  43:  5.48  44:  2.27  45:  0.81  46:  1.98  47:  3.04  48:  0.38
  49:  1.87  50:  1.10  51:  1.05  52:  0.47  53:  3.43  54:  0.93  55:  0.28  56:  0.17
  57:  2.93  58:  0.22  59:  0.21  60:  0.37  61:  0.24  62:  0.13  63:  0.80  64:  0.39
  65:  0.86  66:  0.14  67:  0.85  68:  0.09  69:  0.12  70:  0.08  71:  1.69  72:  0.29
  73:  2.90  74:  0.29  75:  0.76  76:  1.31  77:  0.50  78:  0.17  79:  0.72  80:  1.48
  81:  0.34  82:  0.05  83:  0.01  84:  0.34  85:  0.10  86:  0.09  87:  0.28  88:  0.58
  89:  0.40  90:  0.02  91:  0.11  92:  0.42  93:  0.04  94:  0.07  95:  0.23  96:  0.18
  97:  0.05  98:  0.09  99:  0.37 100:  2.26 101:  0.30 102:  2.55 103:  2.01 104:  0.86
 105:  0.14 106:  0.39 107:  0.28 108:  0.09 109:  2.37 110:  0.91 111:  0.04 112:  0.47
 113:  0.04 114:  0.84 115:  0.08 116:  0.16 117:  0.02 118:  0.14 119:  0.21 120:  0.12
 121:  0.02 122:  0.03 123:  0.04 124:  0.15 125:  0.06 126:  2.32 127:  0.60 128:  1.70
 129:  1.18 130:  1.31 131:  0.26 132:  0.80 133:  3.57 134:  0.80 135:  9.69 136: 24.74
 137:  6.52 138:  6.40 139:  0.73 140: 29.60 141:  0.78 142:  8.68 143: 10.10 144:  3.13
 145:  3.62 146: 41.90 147:  5.10 148:  8.17 149: 20.02 150: 21.44 151: 47.74 152:  6.54
 153:  4.51 154:100.48 155: 14.45 156:285.33 157: 60.06 158: 17.09 159:208.34 160: 40.47
 161: 68.70 162:355.15 163: 61.03 164: 64.82 165: 61.35 166: 51.18 167: 33.26 168: 34.20
 Raman intensities (amu)
   1:  0.00   2:  0.00   3:  0.00   4:  0.00   5:  0.00   6:  0.00   7:  0.00   8:  0.00
   9:  0.00  10:  0.00  11:  0.00  12:  0.00  13:  0.00  14:  0.00  15:  0.00  16:  0.00
  17:  0.00  18:  0.00  19:  0.00  20:  0.00  21:  0.00  22:  0.00  23:  0.00  24:  0.00
  25:  0.00  26:  0.00  27:  0.00  28:  0.00  29:  0.00  30:  0.00  31:  0.00  32:  0.00
  33:  0.00  34:  0.00  35:  0.00  36:  0.00  37:  0.00  38:  0.00  39:  0.00  40:  0.00
  41:  0.00  42:  0.00  43:  0.00  44:  0.00  45:  0.00  46:  0.00  47:  0.00  48:  0.00
  49:  0.00  50:  0.00  51:  0.00  52:  0.00  53:  0.00  54:  0.00  55:  0.00  56:  0.00
  57:  0.00  58:  0.00  59:  0.00  60:  0.00  61:  0.00  62:  0.00  63:  0.00  64:  0.00
  65:  0.00  66:  0.00  67:  0.00  68:  0.00  69:  0.00  70:  0.00  71:  0.00  72:  0.00
  73:  0.00  74:  0.00  75:  0.00  76:  0.00  77:  0.00  78:  0.00  79:  0.00  80:  0.00
  81:  0.00  82:  0.00  83:  0.00  84:  0.00  85:  0.00  86:  0.00  87:  0.00  88:  0.00
  89:  0.00  90:  0.00  91:  0.00  92:  0.00  93:  0.00  94:  0.00  95:  0.00  96:  0.00
  97:  0.00  98:  0.00  99:  0.00 100:  0.00 101:  0.00 102:  0.00 103:  0.00 104:  0.00
 105:  0.00 106:  0.00 107:  0.00 108:  0.00 109:  0.00 110:  0.00 111:  0.00 112:  0.00
 113:  0.00 114:  0.00 115:  0.00 116:  0.00 117:  0.00 118:  0.00 119:  0.00 120:  0.00
 121:  0.00 122:  0.00 123:  0.00 124:  0.00 125:  0.00 126:  0.00 127:  0.00 128:  0.00
 129:  0.00 130:  0.00 131:  0.00 132:  0.00 133:  0.00 134:  0.00 135:  0.00 136:  0.00
 137:  0.00 138:  0.00 139:  0.00 140:  0.00 141:  0.00 142:  0.00 143:  0.00 144:  0.00
 145:  0.00 146:  0.00 147:  0.00 148:  0.00 149:  0.00 150:  0.00 151:  0.00 152:  0.00
 153:  0.00 154:  0.00 155:  0.00 156:  0.00 157:  0.00 158:  0.00 159:  0.00 160:  0.00
 161:  0.00 162:  0.00 163:  0.00 164:  0.00 165:  0.00 166:  0.00 167:  0.00 168:  0.00
 output can be read by thermo (or use thermo option).
 writing <g98.out> molden fake output.
 recommended (thermochemical) frequency scaling factor: 1.0
           -------------------------------------------------
          |             Thermodynamic Functions             |
           -------------------------------------------------

Molecule has no symmetry elements
It seems to be the C1 point group
c1  symmetry found (for desy threshold:  0.10E+00) used in thermo

          ...................................................
          :                      SETUP                      :
          :.................................................:
          :  # frequencies                         162      :
          :  # imaginary freq.                       0      :
          :  linear?                             false      :
          :  only rotor calc.                    false      :
          :  symmetry                               c1      :
          :  rotational number                       1      :
          :  scaling factor                  1.0000000      :
          :  rotor cutoff                   50.0000000 cm⁻¹ :
          :  imag. cutoff                  -20.0000000 cm⁻¹ :
          :.................................................:

    mode    ω/cm⁻¹     T·S(HO)/kcal·mol⁻¹    T·S(FR)/kcal·mol⁻¹   T·S(vib)
   ------------------------------------------------------------------------
       1      9.28    -2.43288 (  0.12%)    -1.55545 ( 99.88%)    -1.55649
       2     15.28    -2.13726 (  0.87%)    -1.40763 ( 99.13%)    -1.41394
       3     23.31    -1.88739 (  4.51%)    -1.28262 ( 95.49%)    -1.30989
       4     32.23    -1.69568 ( 14.72%)    -1.18663 ( 85.28%)    -1.26156
       5     38.99    -1.58307 ( 27.00%)    -1.13019 ( 73.00%)    -1.25247
       6     41.30    -1.54909 ( 31.77%)    -1.11315 ( 68.23%)    -1.25163
       7     47.23    -1.46994 ( 44.32%)    -1.07343 ( 55.68%)    -1.24917
       8     71.55    -1.22546 ( 80.75%)    -0.95037 ( 19.25%)    -1.17250
       9     79.15    -1.16632 ( 86.26%)    -0.92047 ( 13.74%)    -1.13255
      10     84.21    -1.13007 ( 88.95%)    -0.90211 ( 11.05%)    -1.10487
      11    108.74    -0.98130 ( 95.72%)    -0.82638 (  4.28%)    -0.97467
      12    110.15    -0.97384 ( 95.93%)    -0.82257 (  4.07%)    -0.96768
      13    119.87    -0.92501 ( 97.06%)    -0.79752 (  2.94%)    -0.92126
      14    120.71    -0.92099 ( 97.14%)    -0.79546 (  2.86%)    -0.91740
      15    138.01    -0.84414 ( 98.31%)    -0.75577 (  1.69%)    -0.84265
      16    144.66    -0.81733 ( 98.59%)    -0.74184 (  1.41%)    -0.81627
      17    150.36    -0.79536 ( 98.79%)    -0.73038 (  1.21%)    -0.79457
      18    154.90    -0.77850 ( 98.93%)    -0.72156 (  1.07%)    -0.77789
      19    179.92    -0.69446 ( 99.41%)    -0.67721 (  0.59%)    -0.69436
      20    198.88    -0.63906 ( 99.60%)    -0.64753 (  0.40%)    -0.63909
      21    233.31    -0.55257 ( 99.79%)    -0.60023 (  0.21%)    -0.55267
      22    250.22    -0.51551 ( 99.84%)    -0.57950 (  0.16%)    -0.51561
      23    262.66    -0.49016 ( 99.87%)    -0.56513 (  0.13%)    -0.49026
      24    271.11    -0.47379 ( 99.88%)    -0.55575 (  0.12%)    -0.47388
   ------------------------------------------------------------------------

   temp. (K)  partition function   enthalpy   heat capacity  entropy
                                   cal/mol     cal/K/mol   cal/K/mol   J/K/mol
 298.15  VIB  0.342E+13            13647.334     74.399     91.067
         ROT  0.155E+08              888.752      2.981     35.880
         INT  0.529E+20            14536.086     77.379    126.947
         TR   0.393E+28             1481.254      4.968     42.483
         TOT                       16017.3403    82.3476   169.4299   708.8945

       T/K    H(0)-H(T)+PV         H(T)/Eh          T*S/Eh         G(T)/Eh
   ------------------------------------------------------------------------
    298.15    0.255253E-01    0.551034E+00    0.805016E-01    0.470533E+00
   ------------------------------------------------------------------------

         :::::::::::::::::::::::::::::::::::::::::::::::::::::
         ::                  THERMODYNAMIC                  ::
         :::::::::::::::::::::::::::::::::::::::::::::::::::::
         :: total free energy         -57.493475495206 Eh   ::
         ::.................................................::
         :: total energy              -57.964008374482 Eh   ::
         :: zero point energy           0.525509213499 Eh   ::
         :: G(RRHO) w/o ZPVE           -0.054976334223 Eh   ::
         :: G(RRHO) contrib.            0.470532879276 Eh   ::
         :::::::::::::::::::::::::::::::::::::::::::::::::::::
 
 normal mode %tage of torsion character
   1:  0.00   2:  0.00   3:  0.00   4:  0.00   5:  0.00   6:  0.00   7:  0.18   8:  0.41
   9:  0.37  10:  0.44  11:  0.54  12:  0.47  13:  0.46  14:  0.46  15:  0.64  16:  0.48
  17:  0.50  18:  0.63  19:  0.65  20:  0.70  21:  0.50  22:  0.58  23:  0.73  24:  0.64
  25:  0.59  26:  0.58  27:  0.88  28:  0.45  29:  0.67  30:  0.54  31:  0.42  32:  0.21
  33:  0.26  34:  0.10  35:  0.15  36:  0.16  37:  0.08  38:  0.14  39:  0.07  40:  0.57
  41:  0.52  42:  0.57  43:  0.53  44:  0.47  45:  0.47  46:  0.46  47:  0.47  48:  0.51
  49:  0.53  50:  0.44  51:  0.41  52:  0.57  53:  0.13  54:  0.38  55:  0.53  56:  0.42
  57:  0.14  58:  0.35  59:  0.28  60:  0.18  61:  0.07  62:  0.17  63:  0.10  64:  0.11
  65:  0.11  66:  0.10  67:  0.10  68:  0.03  69:  0.03  70:  0.02  71:  0.11  72:  0.08
  73:  0.21  74:  0.26  75:  0.28  76:  0.25  77:  0.45  78:  0.57  79:  0.50  80:  0.36
  81:  0.40  82:  0.35  83:  0.22  84:  0.28  85:  0.23  86:  0.29  87:  0.10  88:  0.14
  89:  0.12  90:  0.13  91:  0.11  92:  0.16  93:  0.13  94:  0.08  95:  0.09  96:  0.07
  97:  0.08  98:  0.08  99:  0.08 100:  0.08 101:  0.06 102:  0.16 103:  0.07 104:  0.06
 105:  0.06 106:  0.05 107:  0.05 108:  0.06 109:  0.00 110:  0.00 111:  0.69 112:  0.65
 113:  0.61 114:  0.68 115:  0.65 116:  0.65 117:  0.63 118:  0.63 119:  0.63 120:  0.65
 121:  0.61 122:  0.59 123:  0.69 124:  0.62 125:  0.60 126:  0.93 127:  0.62 128:  0.74
 129:  0.81 130:  0.83 131:  0.35 132:  0.35 133:  0.33 134:  0.33 135:  0.26 136:  0.28
 137:  0.29 138:  0.25 139:  0.19 140:  0.26 141:  0.12 142:  0.10 143:  0.03 144:  0.01
 145:  0.01 146:  0.01 147:  0.01 148:  0.01 149:  0.01 150:  0.01 151:  0.01 152:  0.01
 153:  0.01 154:  0.01 155:  0.01 156:  0.01 157:  0.02 158:  0.02 159:  0.01 160:  0.05
 161:  0.03 162:  0.04 163:  0.06 164:  0.04 165:  0.04 166:  0.05 167:  0.00 168:  0.02
 recommended # of modes for mode following           4

optimized geometry written to: xtbopt.xyz


           -------------------------------------------------
          | TOTAL ENERGY              -57.964008374482 Eh   |
          | TOTAL ENTHALPY            -57.412973904401 Eh   |
          | TOTAL FREE ENERGY         -57.493475495206 Eh   |
          | GRADIENT NORM               0.000501897100 Eh/α |
          | HOMO-LUMO GAP              11.946641158853 eV   |
           -------------------------------------------------

------------------------------------------------------------------------
 * finished run on 2024/04/23 at 12:11:06.819     
------------------------------------------------------------------------
 total:
 * wall-time:     0 d,  0 h,  0 min,  3.720 sec
 *  cpu-time:     0 d,  0 h,  0 min, 14.465 sec
 * ratio c/w:     3.889 speedup
 SCF:
 * wall-time:     0 d,  0 h,  0 min,  0.048 sec
 *  cpu-time:     0 d,  0 h,  0 min,  0.165 sec
 * ratio c/w:     3.456 speedup
 ANC optimizer:
 * wall-time:     0 d,  0 h,  0 min,  0.290 sec
 *  cpu-time:     0 d,  0 h,  0 min,  1.113 sec
 * ratio c/w:     3.832 speedup
 analytical hessian:
 * wall-time:     0 d,  0 h,  0 min,  3.294 sec
 *  cpu-time:     0 d,  0 h,  0 min, 12.923 sec
 * ratio c/w:     3.923 speedup

