56
 energy: -57.964008374482 gnorm: 0.000501899586 xtb: 6.6.1 (8d0f1dd)
C            5.52330945534690       -6.47058675579145       -1.42050776983617
C            4.19664877024364       -7.20597908432393       -1.57230808815459
C            3.45918656279786       -7.39950820402136       -0.24595560299942
C            3.07020285120476       -6.10550626362917        0.47104142190018
C            2.08488639308843       -5.24606524708197       -0.31720352664162
C            1.65311512775728       -4.01058288932412        0.46928955832040
C            0.68520935945591       -3.13670416422001       -0.32470485145773
C            0.30969064904046       -1.86199209255085        0.42679895245160
C           -0.64915592710717       -0.98616353938178       -0.37593123296990
C           -0.97667620778438        0.32023086537448        0.34280488965518
C           -1.93211043353366        1.19501114912138       -0.46543065246421
C           -2.21820268266845        2.52522050200635        0.22745726343427
C           -3.17114664343276        3.39692118586657       -0.58740883499794
C           -3.52355462141048        4.71768169436940        0.09831075034814
C           -2.35109761442127        5.69322630188948        0.17633483734683
C           -2.76821035648750        7.03510906568886        0.77354061090400
C           -1.60084798821639        8.01545304903216        0.85843717708664
C           -2.02432713886816        9.35076267867469        1.45820755356801
H            6.14397435935151       -6.95746772583114       -0.67126442493624
H            6.06382730505848       -6.46805647237803       -2.36450334075469
H            5.36596198584873       -5.43814434811854       -1.11984260409540
H            4.38752405260284       -8.19349136501774       -2.00013903612102
H            3.55944678823920       -6.66667449503010       -2.27495577542028
H            2.55346488336030       -7.98182865405584       -0.43394753538793
H            4.09488170805623       -7.98673665367008        0.42187611506879
H            3.96580208159444       -5.52177537057335        0.68971412793142
H            2.61513097235903       -6.37038414353037        1.42910690154937
H            1.20430928684510       -5.84276909794029       -0.56733904735915
H            2.54352118707753       -4.92226486127470       -1.25296229399066
H            2.53743991142839       -3.42318131456209        0.72874834453130
H            1.17874557614526       -4.32015849523308        1.40358906046458
H            1.14477705981948       -2.86707560485130       -1.27881227256217
H           -0.21986591570248       -3.70743956663940       -0.54553895807917
H            1.21733193371801       -1.29442502095698        0.64610817576490
H           -0.15208890918364       -2.12568845412895        1.38114443207307
H           -1.57315961173973       -1.53838317140148       -0.56267094256627
H           -0.20042751589694       -0.75840612211352       -1.34588269109960
H           -1.42383300859787        0.09754100168242        1.31444488275631
H           -0.05102378755932        0.87155826437570        0.52506088892106
H           -1.49704851786120        1.38895640457465       -1.44886354985841
H           -2.87020762630166        0.65693232133319       -0.62132589572162
H           -2.65607124181089        2.33407262821818        1.21006593850181
H           -1.27513258877032        3.05237489612096        0.38047818323103
H           -2.72469373204602        3.60611903234614       -1.56246488581574
H           -4.09314088962287        2.83645617404835       -0.76179167089611
H           -3.89178155052135        4.51341925771287        1.10645957755647
H           -4.33523123529890        5.19368141862203       -0.45788459566783
H           -1.94998247396514        5.85465758442303       -0.82724511509576
H           -1.55420573071202        5.26688673326850        0.78797221502334
H           -3.17551011819998        6.87297498744644        1.77447425594268
H           -3.56142773849356        7.47265321285515        0.16235652433661
H           -1.19474386702462        8.17955147912134       -0.14240305402491
H           -0.80712274444628        7.57891524894781        1.46916629060099
H           -2.80299192235331        9.81016253281098        0.85309671168833
H           -2.41285562414208        9.20988101936303        2.46455064077439
H           -1.18018935726294       10.03459815737058        1.50855243360011
