56
 energy: -57.960113391585 gnorm: 0.037801864373 xtb: 6.6.1 (8d0f1dd)
C            5.51689700000000       -6.43482100000000       -1.42110800000000
C            4.20717700000000       -7.19006700000000       -1.58477000000000
C            3.47801700000000       -7.43926800000000       -0.25964000000000
C            3.07138100000000       -6.16432000000000        0.48569200000000
C            2.08149400000000       -5.29231500000000       -0.28669100000000
C            1.66418300000000       -4.03800200000000        0.48113100000000
C            0.69518700000000       -3.15576700000000       -0.30586000000000
C            0.31844200000000       -1.87074800000000        0.43129000000000
C           -0.63437700000000       -0.98434800000000       -0.37065600000000
C           -0.97367500000000        0.32757400000000        0.33640300000000
C           -1.92640100000000        1.20794900000000       -0.47225200000000
C           -2.24042400000000        2.53938000000000        0.21024700000000
C           -3.20939800000000        3.40375000000000       -0.59744700000000
C           -3.56164100000000        4.73155100000000        0.07953000000000
C           -2.38386400000000        5.70237400000000        0.17107000000000
C           -2.76955700000000        7.05068900000000        0.78032200000000
C           -1.59622100000000        8.02830400000000        0.86107600000000
C           -1.98823700000000        9.36982300000000        1.46075600000000
H            6.19091800000000       -6.95493300000000       -0.73717200000000
H            6.04388000000000       -6.31707100000000       -2.37119200000000
H            5.35530600000000       -5.43442500000000       -1.01540700000000
H            4.39848300000000       -8.15090600000000       -2.08441100000000
H            3.54559300000000       -6.64766800000000       -2.27285000000000
H            2.58118000000000       -8.04674000000000       -0.44033600000000
H            4.11721900000000       -8.05565400000000        0.38663000000000
H            3.96311300000000       -5.57466500000000        0.72951500000000
H            2.63324300000000       -6.42377100000000        1.45882400000000
H            1.19251600000000       -5.88160300000000       -0.54395500000000
H            2.51598300000000       -4.99695700000000       -1.24911900000000
H            2.55607900000000       -3.45725400000000        0.74792400000000
H            1.21233100000000       -4.32190600000000        1.43977600000000
H            1.13670700000000       -2.90358300000000       -1.27820900000000
H           -0.21178200000000       -3.72497400000000       -0.54523000000000
H            1.22761400000000       -1.30700000000000        0.67513600000000
H           -0.13215500000000       -2.11759200000000        1.40075200000000
H           -1.55730200000000       -1.53657900000000       -0.58794300000000
H           -0.19529700000000       -0.76825600000000       -1.35276800000000
H           -1.41060200000000        0.11592600000000        1.32035200000000
H           -0.05032200000000        0.88113200000000        0.54829400000000
H           -1.49928900000000        1.39668100000000       -1.46518200000000
H           -2.85877400000000        0.66205000000000       -0.66330700000000
H           -2.65587800000000        2.35368700000000        1.20856900000000
H           -1.30673300000000        3.08628300000000        0.38742500000000
H           -2.78257800000000        3.60094500000000       -1.58874500000000
H           -4.12364900000000        2.82666000000000       -0.79035800000000
H           -3.95653300000000        4.53841000000000        1.08476100000000
H           -4.38326000000000        5.22067700000000       -0.46086200000000
H           -1.95853400000000        5.85920800000000       -0.82814200000000
H           -1.57304900000000        5.25570000000000        0.75882600000000
H           -3.19110000000000        6.89605300000000        1.78157400000000
H           -3.58287000000000        7.49987600000000        0.19651700000000
H           -1.17409600000000        8.17164000000000       -0.14303500000000
H           -0.78494300000000        7.57424700000000        1.44623600000000
H           -2.77027000000000        9.85275400000000        0.87100000000000
H           -2.37740400000000        9.25143600000000        2.47428800000000
H           -1.14241700000000       10.06001800000000        1.51264500000000
56
 energy: -57.963222942189 gnorm: 0.017322607715 xtb: 6.6.1 (8d0f1dd)
C            5.51662184145452       -6.43474257599870       -1.41767131988635
C            4.20440894429645       -7.18551642350409       -1.58451983704422
C            3.47590780269565       -7.42859566050522       -0.26061260870406
C            3.06902811916551       -6.15444495191733        0.48331716365143
C            2.07672991942958       -5.28642298669809       -0.28980141751795
C            1.66256004607024       -4.03467675527696        0.48307572912750
C            0.69405250394203       -3.15407102260310       -0.30677375489128
C            0.31861768277713       -1.86934115807649        0.43206266825645
C           -0.63470727475347       -0.98469916877968       -0.37208654052972
C           -0.97307530701422        0.32690287969057        0.33691448216530
C           -1.92646104470345        1.20566550603418       -0.47350808950544
C           -2.23546782089719        2.53594759842463        0.21345501903546
C           -3.19975272779180        3.40401697611606       -0.59537207938170
C           -3.55358217837812        4.72916401629750        0.08418666349092
C           -2.37886747214327        5.70310626102714        0.17123453712055
C           -2.77365900746905        7.04802931252067        0.77975634302231
C           -1.59744821176034        8.02091427538200        0.85836949836380
C           -1.99354946231239        9.36132514857650        1.45887046352365
H            6.18202788640523       -6.96279094179139       -0.73451878115835
H            6.02916504348020       -6.33095077933363       -2.37377322113364
H            5.34990921139539       -5.43439034912865       -1.02174113832948
H            4.40320652861496       -8.15356343524211       -2.05920405189222
H            3.54969383591379       -6.63652960861425       -2.26805159981230
H            2.57987939492566       -8.02832349060716       -0.45508434926762
H            4.12105258444466       -8.02994316951313        0.38987920996237
H            3.96100408075571       -5.56688705492718        0.71906569608122
H            2.62183189273375       -6.43508585478836        1.44359041726100
H            1.18758821114089       -5.87915936234334       -0.53029203463013
H            2.52210582072716       -4.98094590821956       -1.24099814996177
H            2.55684903502916       -3.45373422806433        0.73351888154587
H            1.20028966745615       -4.32683927965717        1.43198656473911
H            1.14720421262879       -2.89501412097328       -1.26983649954550
H           -0.21421785625916       -3.72407336462980       -0.52961599377076
H            1.22949631300352       -1.30533090859182        0.65971127619030
H           -0.14308338134880       -2.12347402309098        1.39206722817025
H           -1.55893188780403       -1.53703504339436       -0.57273517958262
H           -0.18403726605143       -0.76132111000164       -1.34509842744410
H           -1.42153817951679        0.10819533815858        1.31186151634855
H           -0.04843537333723        0.88056191288358        0.53242121974058
H           -1.48772659285516        1.40232486445819       -1.45768373966790
H           -2.86069201899080        0.66125691170132       -0.64821832650720
H           -2.66518783195376        2.34412303381753        1.20244035770946
H           -1.29984325595590        3.07952002268773        0.37322482117834
H           -2.76629131976397        3.60783057842247       -1.58028703318355
H           -4.12030595237865        2.83555658429266       -0.76971373666145
H           -3.93832128172325        4.53089120912997        1.09016504522320
H           -4.36563538618325        5.21002570350166       -0.47306165914833
H           -1.97007455884951        5.86557038266148       -0.83191833157859
H           -1.57940129839657        5.26094916456942        0.77284101491732
H           -3.17886032329704        6.88808005979218        1.78471097332372
H           -3.57513211025121        7.49731679129293        0.18342849924751
H           -1.18944685211810        8.17636422858206       -0.14656924601667
H           -0.79677053804878        7.57345424971376        1.45769871649055
H           -2.77073507872172        9.83967968981502        0.86308352641394
H           -2.37673259771284        9.23605870105785        2.47146703589334
H           -1.14094812974485       10.03865533566415        1.50425657855893
56
 energy: -57.963791725332 gnorm: 0.002626594834 xtb: 6.6.1 (8d0f1dd)
C            5.51817254652766       -6.43409680924974       -1.41799435260011
C            4.20226721149600       -7.18246049077105       -1.58430846447048
C            3.47138771185353       -7.41855499199354       -0.26126858209506
C            3.06372894917389       -6.14472680289478        0.48258075774593
C            2.07180804179660       -5.27869795539092       -0.29282999370592
C            1.65970360464584       -4.02914771353395        0.48507226127917
C            0.69138322027626       -3.15075022045788       -0.30823280762262
C            0.31835144721527       -1.86659973481519        0.43373632665614
C           -0.63559431973739       -0.98526664563028       -0.37441847396487
C           -0.97180248969393        0.32561781837298        0.33818752584088
C           -1.92569111395011        1.20249902574049       -0.47475217115329
C           -2.22848671502856        2.53206396772142        0.21726884731309
C           -3.19104635277969        3.40078020263608       -0.59323024411590
C           -3.54599069815034        4.72516483413421        0.08749138618383
C           -2.37285292863481        5.70080977063116        0.17182942005730
C           -2.77590564823185        7.04365969722958        0.77856154558486
C           -1.59864069411559        8.01431235682471        0.85582402062689
C           -1.99769139605391        9.35546105136173        1.45752521627945
H            6.17548475246933       -6.96550394077664       -0.73251681634380
H            6.02475752786338       -6.34197835275136       -2.37654012810842
H            5.35068028770072       -5.43330784756759       -1.02889823701255
H            4.40374207386587       -8.15488781068075       -2.04235760969700
H            3.55389413182666       -6.63176474020735       -2.26777131895193
H            2.57613753376036       -8.01355704684971       -0.46103553577478
H            4.11876217587089       -8.00953991307343        0.39277864541726
H            3.95409487109674       -5.55775707147814        0.71473818771130
H            2.61141693611493       -6.43570136786399        1.43488293984648
H            1.18375582422481       -5.87232871226735       -0.52499154525973
H            2.52092315732147       -4.96775924400433       -1.23778943701277
H            2.55422224186381       -3.44927460856107        0.72792784224870
H            1.19288465791139       -4.32519498905302        1.42802653063219
H            1.15021545192063       -2.88916441881359       -1.26554009976520
H           -0.21624266629757       -3.72065716799753       -0.52316825504460
H            1.22909753339498       -1.30307024877034        0.65296070828208
H           -0.14799374414411       -2.12389800787630        1.38816407132218
H           -1.55919347363608       -1.53729162099490       -0.56678941908631
H           -0.17976565329105       -0.75861277949332       -1.34187633462885
H           -1.42519562483387        0.10376508797258        1.30771226935445
H           -0.04772373162927        0.87894289198836        0.52529331306402
H           -1.48257788742242        1.40282275520011       -1.45383233493347
H           -2.86017520084609        0.66008813831422       -0.64098839725606
H           -2.66569326579389        2.33698893705468        1.19994525152851
H           -1.29166157063471        3.07095047616047        0.36985950237777
H           -2.75341548881231        3.60872161407413       -1.57306669597291
H           -4.11426490365685        2.83843754736534       -0.75925937142424
H           -3.92379264251853        4.52468878884496        1.09328945503749
H           -4.35342719079680        5.19991453072137       -0.47736002538141
H           -1.97354254915445        5.86674691301552       -0.83220435833602
H           -1.57757195437377        5.26524567642564        0.77944056890916
H           -3.17374283641377        6.88168290979993        1.78366542862288
H           -3.57094091792296        7.49165841808630        0.17667835348111
H           -1.19798998369652        8.17474434699694       -0.14829557909546
H           -0.80444597524950        7.56993433617402        1.46108284652379
H           -2.77309069498273        9.82913493642755        0.85886119320711
H           -2.37882959116266        9.22460578708906        2.46829358861078
H           -1.14158098654495       10.02569243745451        1.49955258506893
56
 energy: -57.963859193975 gnorm: 0.001927343858 xtb: 6.6.1 (8d0f1dd)
C            5.51919818185762       -6.43431738788648       -1.41884822775450
C            4.20108891439151       -7.18100668685907       -1.58407050414642
C            3.46903024983117       -7.41362189936657       -0.26083856279598
C            3.06057756842026       -6.13921834590410        0.48200358271208
C            2.06898237197385       -5.27411523486445       -0.29429538215017
C            1.65755678458621       -4.02568356050085        0.48550472595526
C            0.68968915145072       -3.14826435726620       -0.30875345714078
C            0.31772224952239       -1.86486338876441        0.43417267213541
C           -0.63611112837593       -0.98527328606029       -0.37522996982263
C           -0.97113386377568        0.32475833002914        0.33860668063624
C           -1.92484785146029        1.20090718465604       -0.47464715784218
C           -2.22507030089474        2.52978622846946        0.21931147091754
C           -3.18645571359392        3.39829373935017       -0.59223043212410
C           -3.54203130356200        4.72228629516120        0.08914705623947
C           -2.36957114832567        5.69854309254394        0.17178886124281
C           -2.77606552954818        7.04069838272898        0.77768486713443
C           -1.59903917337903        8.01136908101543        0.85477004109689
C           -1.99954669514150        9.35280480062746        1.45687807564804
H            6.17378167996653       -6.96502405145618       -0.73071100471481
H            6.02611819763537       -6.34781587953596       -2.37745016657438
H            5.35326984200984       -5.43189647763345       -1.03386864146802
H            4.40216493032604       -8.15507224103106       -2.03730660057087
H            3.55514650885066       -6.63132517973204       -2.27004633259725
H            2.57354091514499       -8.00740674411767       -0.46068883524649
H            4.11554714104207       -8.00279211068484        0.39484483885734
H            3.94976119317453       -5.55158254807253        0.71512740774322
H            2.60638746690838       -6.43070943246690        1.43257190119541
H            1.18106682888141       -5.86698263076311       -0.52638191779426
H            2.51801685692165       -4.96169558310719       -1.23824120970001
H            2.55148825809091       -3.44590239771829        0.72831464996500
H            1.19013335865309       -4.32209570724714        1.42739889271141
H            1.14892805054901       -2.88645488399819       -1.26515886228441
H           -0.21768417978278       -3.71765679669492       -0.52320028315905
H            1.22803904455985       -1.30133465021614        0.65237361264665
H           -0.14871243744850       -2.12200324246761        1.38794318917157
H           -1.55918732895449       -1.53727249152119       -0.56687960300714
H           -0.18000748228307       -0.75850574605766       -1.34188179612068
H           -1.42451126933341        0.10245737267494        1.30738651954690
H           -0.04731013407501        0.87765838560912        0.52487033822830
H           -1.48202019794881        1.40114008754122       -1.45325650769698
H           -2.85935130478697        0.65932216227873       -0.63961804113542
H           -2.66265864617264        2.33399683288871        1.20104930486770
H           -1.28741607768891        3.06623196834700        0.37182417842856
H           -2.74735914693082        3.60666153875198       -1.57077802633692
H           -4.10909461956570        2.83625869673834       -0.75826995447231
H           -3.91791145510170        4.52141426761587        1.09508212457197
H           -4.34946674420980        5.19572200693946       -0.47561703086886
H           -1.97134470268893        5.86482277773882       -0.83205500487776
H           -1.57366309192220        5.26597375527355        0.77988348657368
H           -3.17416450715745        6.87845176121733        1.78211090465849
H           -3.57053184970235        7.48703439514845        0.17473367019972
H           -1.19918185280517        8.17200366430067       -0.14902203819532
H           -0.80565886895607        7.56731455099091        1.46031053942889
H           -2.77519168038364        9.82475014563502        0.85771047376117
H           -2.38099959973090        9.22012514645707        2.46695992137294
H           -1.14362485906183       10.02269029126544        1.49889556295064
56
 energy: -57.963935529753 gnorm: 0.004355329577 xtb: 6.6.1 (8d0f1dd)
C            5.52151339501944       -6.43582466370164       -1.42121196932671
C            4.19819522236058       -7.17739064939444       -1.58229002731110
C            3.46229375162728       -7.39975020595074       -0.25889754749010
C            3.05204125473125       -6.12341948266818        0.47986900369095
C            2.06201943315624       -5.26059581450773       -0.29882036829302
C            1.65091539280505       -4.01586902692532        0.48521886172528
C            0.68467374949775       -3.14065020572099       -0.31011495785813
C            0.31541248933411       -1.85985329076013        0.43461416692951
C           -0.63767408332332       -0.98477523354460       -0.37679045592419
C           -0.96942460463131        0.32223060423877        0.33971761138502
C           -1.92221224366242        1.19661834212666       -0.47295608091127
C           -2.21576059606173        2.52352482439706        0.22460738728114
C           -3.17378172698001        3.39107550925625       -0.58928895739670
C           -3.53101047989596        4.71332551846625        0.09346541491466
C           -2.36047699145736        5.69098066759826        0.17166082367225
C           -2.77469166762439        7.03179447492326        0.77453915977280
C           -1.59993136296969        8.00418771359240        0.85228093797530
C           -2.00503741017395        9.34509541972970        1.45506609308604
H            6.16929262192494       -6.96224836159007       -0.72371459657456
H            6.03219241111010       -6.36620793171881       -2.37918774465339
H            5.36130896732502       -5.42716028578896       -1.04991595273045
H            4.39638533120447       -8.15587171705261       -2.02567458279802
H            3.55775747150503       -6.63098369955024       -2.27589270558092
H            2.56550690361133       -7.99132131285227       -0.45771438999069
H            4.10545470849909       -7.98673094627574        0.40103274260086
H            3.93830018957319       -5.53311169483209        0.71645046782447
H            2.59337357395402       -6.41304372212626        1.42818597806405
H            1.17379007071675       -5.85117434506137       -0.53311544637348
H            2.50995861362119       -4.94463739984524       -1.24169924749122
H            2.54307824257503       -3.43549303112446        0.73060060147999
H            1.18235583276282       -4.31307029681458        1.42568217639052
H            1.14373562445864       -2.87824922253196       -1.26575058543700
H           -0.22272767814458       -3.70853428929931       -0.52541796597318
H            1.22487589685126       -1.29577061136589        0.65200164052748
H           -0.15021763304753       -2.11576444346177        1.38843447739410
H           -1.55992809964994       -1.53693220326523       -0.56847886497050
H           -0.18201887477318       -0.75833864305539       -1.34305344112937
H           -1.42143466607669        0.09916135924254        1.30826945140071
H           -0.04554607720971        0.87395099382708        0.52565449563454
H           -1.48137444533984        1.39565166658091       -1.45206975915295
H           -2.85735812869005        0.65689933275381       -0.63615974635240
H           -2.65298816094073        2.32649400424576        1.20559148089248
H           -1.27550858263586        3.05409370086997        0.37909999468892
H           -2.73027659891209        3.60003665687701       -1.56515338878970
H           -4.09389061350072        2.82752514552587       -0.75908116324262
H           -3.90170783326299        4.51100832757778        1.10054927314542
H           -4.34089397511507        5.18506330585331       -0.46768554233902
H           -1.96313828444262        5.85687099461296       -0.83205225501358
H           -1.56124538676827        5.26520831385370        0.77972278775436
H           -3.17595850085659        6.86893276025367        1.77716557254234
H           -3.56942620038507        7.47300314883294        0.16899299890465
H           -1.20017779884619        8.16455947850619       -0.15106715289646
H           -0.80670339585128        7.56065030728600        1.45751064574682
H           -2.78199473836935        9.81295265831204        0.85483213041983
H           -2.38809815245728        9.20831119526903        2.46372307309959
H           -1.15150515616878       10.01715030617680        1.49862944705671
56
 energy: -57.963952557977 gnorm: 0.002127374997 xtb: 6.6.1 (8d0f1dd)
C            5.52108778165303       -6.43654889080666       -1.42091754348943
C            4.19811268452115       -7.17750831925710       -1.58161619296562
C            3.46213940175737       -7.39946329839563       -0.25841886032581
C            3.05246734550555       -6.12280593327305        0.47935868114736
C            2.06261144867952       -5.26005170218489       -0.29939191406887
C            1.65060865228041       -4.01570901615967        0.48425520860560
C            0.68443437033792       -3.14029811081754       -0.31041108203795
C            0.31511221526843       -1.85979901172706        0.43421326327661
C           -0.63789182193691       -0.98446135357381       -0.37640943159446
C           -0.96950989190664        0.32226675181039        0.33994799539046
C           -1.92212638900997        1.19675441640018       -0.47215242988203
C           -2.21585009715292        2.52365406353873        0.22456136478647
C           -3.17356219947750        3.39118998585529       -0.58934512764644
C           -3.53078049411619        4.71273058992831        0.09368481567657
C           -2.36018000545894        5.69025315341346        0.17163022129685
C           -2.77360783141676        7.03126037286855        0.77410362189810
C           -1.59968358115346        8.00450978957168        0.85239110336549
C           -2.00573668152444        9.34451808895163        1.45498179798405
H            6.16866261455456       -6.96147089608579       -0.72187431846169
H            6.03301859737726       -6.36869260783589       -2.37842999087647
H            5.36138604739044       -5.42694063067248       -1.05184217726400
H            4.39548996302640       -8.15611002216176       -2.02591434071930
H            3.55723800775116       -6.63099419265016       -2.27506459173322
H            2.56506256987001       -7.99120486973579       -0.45707825153617
H            4.10490168073177       -7.98721848142632        0.40169736477183
H            3.93908248881250       -5.53239189462228        0.71554514102216
H            2.59414144441560       -6.41119565344562        1.42867451086555
H            1.17435457121452       -5.85094058535130       -0.53453672986798
H            2.51075018588181       -4.94405127173374       -1.24253357550514
H            2.54264452800814       -3.43486540632157        0.73062902588161
H            1.18193632780263       -4.31337708141882        1.42495268187534
H            1.14316769731661       -2.87761420551032       -1.26656041721936
H           -0.22332396979863       -3.70815913542390       -0.52622977231514
H            1.22478761655804       -1.29548761405381        0.65204309027658
H           -0.15027139904248       -2.11566939995469        1.38860718739427
H           -1.56051658314182       -1.53662843679420       -0.56850316212673
H           -0.18257673885084       -0.75801081155816       -1.34327088495695
H           -1.42116467915365        0.09920599954250        1.30910252843570
H           -0.04523563770894        0.87396309777053        0.52627516298279
H           -1.48157715568393        1.39545835678089       -1.45188121069040
H           -2.85759912787800        0.65688925834443       -0.63553540805496
H           -2.65296302660585        2.32708752114517        1.20612370456024
H           -1.27553201634238        3.05467802533243        0.37937613138682
H           -2.72963081024027        3.60024415657983       -1.56534891096027
H           -4.09349579544081        2.82696656361732       -0.76049147123781
H           -3.90102813004611        4.50991683332726        1.10116049992133
H           -4.34165476898382        5.18511403928717       -0.46618024232732
H           -1.96242766596790        5.85538007752473       -0.83243510158293
H           -1.56085455910981        5.26364570173498        0.77951547968428
H           -3.17550082374243        6.86847892945111        1.77685015910789
H           -3.56864888319389        7.47232516991579        0.16828288255906
H           -1.19926499567925        8.16513083096155       -0.15105378553162
H           -0.80577269873628        7.56129236208077        1.45763515273300
H           -2.78286806663315        9.81248467700420        0.85473785078284
H           -2.38902067832663        9.20796529665961        2.46377961542074
H           -1.15303003725424       10.01788872355342        1.49922468188849
56
 energy: -57.963967527088 gnorm: 0.001165055283 xtb: 6.6.1 (8d0f1dd)
C            5.52028969520362       -6.43841005983778       -1.42022292244466
C            4.19755924103989       -7.17795188935900       -1.58012873514595
C            3.46139397870927       -7.39843430698610       -0.25714058814048
C            3.05347118408997       -6.12060379558202        0.47823515256481
C            2.06397902280295       -5.25835893684519       -0.30123039339283
C            1.64979383042175       -4.01506453699910        0.48206089200428
C            0.68369259646240       -3.13941194384029       -0.31158271926268
C            0.31443631691415       -1.85962278605989        0.43339242500510
C           -0.63859715250250       -0.98377405119145       -0.37567747468056
C           -0.96962815581771        0.32239539296834        0.34084552385781
C           -1.92207944200143        1.19686252738561       -0.47038767442262
C           -2.21573076459630        2.52387799533608        0.22474596583998
C           -3.17270801343589        3.39136138960592       -0.58953586410213
C           -3.52984899879679        4.71135227210296        0.09453412143518
C           -2.35886401274697        5.68846596126459        0.17163820418854
C           -2.77121306345970        7.02983093058102        0.77302738986539
C           -1.59893492120951        8.00481022348813        0.85244669682081
C           -2.00790528417725        9.34295237035518        1.45477739363416
H            6.16617829790716       -6.95979413019911       -0.71658607863885
H            6.03529497888616       -6.37627289638760       -2.37666899310340
H            5.36147338969282       -5.42627228287064       -1.05740095659557
H            4.39317565054497       -8.15698667873931       -2.02543283251168
H            3.55624809535061       -6.63087691652004       -2.27316533478868
H            2.56364577533376       -7.98999466223584       -0.45543504598680
H            4.10327513584483       -7.98712625628422        0.40366836406488
H            3.94101779176502       -5.53026081368180        0.71265100223709
H            2.59589059151585       -6.40616746778098        1.42939817882866
H            1.17615092621405       -5.85013814734355       -0.53807363082913
H            2.51299648072265       -4.94194540851516       -1.24431148867829
H            2.54129129243166       -3.43325736750501        0.73034743876804
H            1.18063594898552       -4.31407628721162        1.42268285536051
H            1.14191914171275       -2.87597165449908       -1.26837012535211
H           -0.22458962895251       -3.70718268285166       -0.52809439026232
H            1.22443861250645       -1.29500514651217        0.65171877896649
H           -0.15046390354449       -2.11575845181839        1.38855648936264
H           -1.56188347209378       -1.53578435626926       -0.56808771026988
H           -0.18398502924301       -0.75705504588778       -1.34341712089831
H           -1.42066468295829        0.09925578076057        1.31087200072533
H           -0.04470447414374        0.87397192087830        0.52749406750548
H           -1.48204061084539        1.39488064554355       -1.45105761899430
H           -2.85810818642813        0.65684713840702       -0.63359642535579
H           -2.65303941450697        2.32845070897382        1.20704255241374