 Entering Gaussian System
 *********************************************
 Gaussian 98:
 frequency output generated by the xtb code
 *********************************************
                         Standard orientation:
 --------------------------------------------------------------------
  Center     Atomic     Atomic              Coordinates (Angstroms)
  Number     Number      Type              X           Y           Z
 --------------------------------------------------------------------
    1          6             0       -3.437325   -1.618297    0.171432
    2          6             0       -3.582871   -0.185139   -0.327608
    3          6             0       -2.514225    0.757909    0.226989
    4          6             0       -1.109350    0.446351   -0.284296
    5          6             0       -0.084088    1.453874    0.231979
    6          6             0        1.328095    1.208386   -0.301924
    7          6             0        1.960556   -0.075605    0.230804
    8          6             0        3.400299   -0.248310   -0.247511
    9          6             0        4.014129   -1.544821    0.267146
   10          1             0       -3.414181   -1.641376    1.258943
   11          1             0       -2.523484   -2.072377   -0.202289
   12          1             0       -4.276478   -2.222519   -0.166009
   13          1             0       -4.565175    0.191677   -0.032355
   14          1             0       -3.540751   -0.175392   -1.419235
   15          1             0       -2.772223    1.782536   -0.053219
   16          1             0       -2.520508    0.704229    1.318364
   17          1             0       -1.111625    0.463315   -1.376957
   18          1             0       -0.824217   -0.555189    0.036302
   19          1             0       -0.065732    1.422460    1.324108
   20          1             0       -0.399854    2.458252   -0.062228
   21          1             0        1.960749    2.053448   -0.018146
   22          1             0        1.299502    1.171875   -1.393655
   23          1             0        1.377347   -0.937833   -0.096744
   24          1             0        1.944366   -0.057789    1.323263
   25          1             0        3.419439   -0.246869   -1.339882
   26          1             0        4.000347    0.598301    0.094222
   27          1             0        5.037840   -1.651816   -0.084228
   28          1             0        3.441079   -2.402065   -0.080185
   29          1             0        4.021453   -1.557884    1.355035
 --------------------------------------------------------------------
     1 basis functions        1 primitive gaussians
     1 alpha electrons        1 beta electrons
 
 Harmonic frequencies (cm**-1), IR intensities (KM/Mole),
 Raman scattering activities (A**4/amu), Raman depolarization ratios,
 reduced masses (AMU), force constants (mDyne/A) and normal coordinates:
                      1                      2                      3
                        a                      a                      a 
 Frequencies --    31.5106                58.6040                48.7939
 Red. masses --    99.0000                99.0000                99.0000
 Frc consts  --    99.0000                99.0000                99.0000
 IR Inten    --    99.0000                99.0000                99.0000
 Raman Activ --     0.0000                 0.0000                 0.0000
 Depolar     --     0.0000                 0.0000                 0.0000
 Atom AN      X      Y      Z        X      Y      Z        X      Y      Z
   1   6     0.06  -0.06  -0.39     0.15  -0.05   0.05    -0.46   0.15   0.00
   2   6    -0.10   0.14   0.22     0.11  -0.13  -0.16    -0.10   0.13  -0.16
   3   6     0.03  -0.06   0.30    -0.03   0.02  -0.14    -0.03  -0.01  -0.04
   4   6    -0.06   0.04  -0.02     0.04   0.07   0.02    -0.00  -0.21   0.16
   5   6     0.02   0.01  -0.12    -0.02   0.08   0.13     0.01  -0.20   0.12
   6   6    -0.03  -0.09  -0.19     0.00   0.10   0.17    -0.02  -0.13   0.03
   7   6     0.05   0.06   0.09     0.07   0.20   0.33     0.15  -0.03   0.06
   8   6    -0.04  -0.11  -0.12    -0.19  -0.19  -0.28     0.09   0.04  -0.16
   9   6     0.06   0.08   0.25    -0.14  -0.09  -0.10     0.36   0.23  -0.01
  10   1     0.11  -0.14  -0.12    -0.00   0.03   0.02    -0.22   0.07   0.00
  11   1    -0.02   0.03  -0.25     0.07  -0.01   0.07    -0.12  -0.01   0.09
  12   1    -0.01   0.02  -0.11     0.07  -0.05   0.00    -0.13   0.07  -0.05
  13   1    -0.01   0.00   0.18     0.01  -0.05  -0.10    -0.03   0.10  -0.11
  14   1    -0.11   0.16   0.06     0.08  -0.08  -0.05     0.04   0.01  -0.04
  15   1     0.01   0.01   0.19    -0.02  -0.01  -0.08     0.04   0.00  -0.03
  16   1     0.06  -0.11   0.08    -0.04   0.04  -0.04    -0.06   0.01  -0.01
  17   1    -0.08   0.05  -0.01     0.05   0.02   0.01     0.03  -0.10   0.05
  18   1     0.01   0.00  -0.06     0.01   0.02   0.01    -0.03  -0.06   0.09
  19   1     0.02   0.02  -0.04    -0.02   0.01   0.04     0.02  -0.06   0.03
  20   1     0.01   0.00  -0.04    -0.01   0.02   0.04    -0.01  -0.06   0.04
  21   1    -0.01  -0.00  -0.14    -0.01   0.05   0.01    -0.02  -0.02  -0.03
  22   1    -0.04  -0.11  -0.05    -0.00  -0.01   0.05    -0.03  -0.06   0.01
  23   1    -0.01  -0.01   0.14    -0.06   0.05   0.26     0.05  -0.03   0.07
  24   1     0.07   0.12   0.02     0.16   0.17   0.10     0.10   0.03   0.02
  25   1    -0.07  -0.15  -0.04    -0.21  -0.17  -0.09    -0.03  -0.05  -0.05
  26   1     0.01   0.01  -0.16     0.03  -0.04  -0.26     0.01   0.06  -0.13
  27   1    -0.00  -0.02   0.02    -0.10  -0.12  -0.17     0.09   0.08  -0.06
  28   1    -0.00  -0.01   0.20    -0.14  -0.04   0.15     0.12   0.02   0.09
  29   1     0.08   0.15   0.07     0.12   0.09  -0.03     0.17   0.14  -0.00
                      4                      5                      6
                        a                      a                      a 
 Frequencies --    87.4248               107.2822               119.6313
 Red. masses --    99.0000                99.0000                99.0000
 Frc consts  --    99.0000                99.0000                99.0000
 IR Inten    --    99.0000                99.0000                99.0000
 Raman Activ --     0.0000                 0.0000                 0.0000
 Depolar     --     0.0000                 0.0000                 0.0000
 Atom AN      X      Y      Z        X      Y      Z        X      Y      Z
   1   6    -0.05   0.00   0.19     0.31   0.04  -0.05     0.22   0.07  -0.01
   2   6    -0.04  -0.04   0.05     0.03   0.01  -0.05    -0.20   0.07   0.11
   3   6    -0.01  -0.02  -0.05    -0.09   0.18  -0.11    -0.13   0.20  -0.25
   4   6    -0.10   0.30  -0.51    -0.01  -0.00   0.23    -0.13  -0.05  -0.10
   5   6    -0.00  -0.13   0.12    -0.00  -0.00   0.20    -0.08  -0.14  -0.03
   6   6     0.02  -0.03   0.15    -0.05  -0.01   0.08    -0.05  -0.19   0.08
   7   6     0.00  -0.12  -0.04    -0.18  -0.25  -0.33     0.08  -0.05   0.29
   8   6     0.00  -0.06  -0.07    -0.13  -0.13  -0.22     0.05   0.06   0.13
   9   6     0.17   0.09   0.12     0.09   0.15   0.22     0.19  -0.00  -0.21
  10   1    -0.04   0.03   0.06     0.19   0.02  -0.02     0.35   0.02  -0.01
  11   1    -0.00  -0.00   0.09     0.06   0.03  -0.10    -0.04   0.01  -0.24
  12   1     0.00  -0.01   0.05     0.07  -0.01   0.07    -0.03   0.02   0.22
  13   1    -0.01  -0.00   0.02    -0.00  -0.04   0.00    -0.04  -0.02   0.15
  14   1    -0.02  -0.04   0.02    -0.01   0.00  -0.01    -0.18   0.03   0.03
  15   1    -0.06   0.01   0.08    -0.01   0.03  -0.13    -0.02   0.03  -0.17
  16   1     0.09  -0.08  -0.02    -0.08   0.14  -0.03    -0.04   0.16  -0.07
  17   1    -0.08   0.32  -0.14     0.05  -0.07   0.07    -0.00  -0.04  -0.03
  18   1    -0.03   0.01  -0.38    -0.04   0.01   0.15    -0.08  -0.02   0.00
  19   1    -0.03  -0.21   0.03     0.02  -0.01   0.06    -0.05  -0.04  -0.01
  20   1     0.04   0.02   0.19    -0.00   0.00   0.07     0.00  -0.03  -0.01
  21   1     0.00  -0.03   0.10     0.02  -0.05   0.09    -0.03  -0.03  -0.02
  22   1     0.03   0.05   0.04    -0.03   0.09   0.02    -0.00  -0.11   0.02
  23   1    -0.00  -0.02  -0.04    -0.05  -0.03  -0.20     0.03  -0.04   0.14
  24   1     0.00  -0.08  -0.01    -0.08  -0.18  -0.09     0.06   0.04   0.08
  25   1    -0.01  -0.07  -0.02    -0.02  -0.13  -0.06    -0.02   0.08   0.04
  26   1    -0.02   0.02  -0.06    -0.09   0.02  -0.12     0.01   0.01   0.06
  27   1     0.04   0.04   0.01     0.03   0.06   0.06     0.05   0.05  -0.09
  28   1     0.06  -0.01   0.10     0.06  -0.02   0.16     0.07   0.01  -0.11
  29   1     0.08   0.09   0.03     0.04   0.16   0.07     0.08  -0.08  -0.06
                      7                      8                      9
                        a                      a                      a 
 Frequencies --   233.9428               173.8591               249.3182
 Red. masses --    99.0000                99.0000                99.0000
 Frc consts  --    99.0000                99.0000                99.0000
 IR Inten    --    99.0000                99.0000                99.0000
 Raman Activ --     0.0000                 0.0000                 0.0000
 Depolar     --     0.0000                 0.0000                 0.0000
 Atom AN      X      Y      Z        X      Y      Z        X      Y      Z
   1   6    -0.06  -0.01   0.01    -0.20  -0.02   0.01    -0.13  -0.04   0.05
   2   6     0.05  -0.01  -0.02    -0.10   0.03   0.12     0.21  -0.09  -0.24
   3   6     0.07  -0.05   0.01     0.16  -0.13  -0.14     0.01  -0.08   0.13
   4   6     0.07   0.01  -0.02     0.15  -0.25  -0.11     0.04   0.19   0.08
   5   6    -0.00   0.09  -0.04    -0.01  -0.12   0.00     0.07   0.15   0.06
   6   6     0.03   0.03   0.10     0.12   0.30   0.17    -0.05  -0.10  -0.13
   7   6    -0.04   0.00   0.13     0.08   0.17  -0.13    -0.11  -0.07   0.01
   8   6    -0.16  -0.13  -0.19     0.06   0.02  -0.10    -0.08   0.02   0.10
   9   6     0.05   0.05   0.01    -0.20  -0.02   0.11     0.04   0.03  -0.04
  10   1     0.07   0.01   0.00     0.22  -0.00  -0.00     0.32   0.09   0.01
  11   1    -0.07  -0.05  -0.06    -0.20  -0.11  -0.23    -0.24  -0.22  -0.25
  12   1    -0.08   0.03   0.08    -0.21   0.09   0.22    -0.26   0.11   0.36
  13   1     0.02   0.01  -0.01     0.02   0.06   0.13     0.03   0.01  -0.20
  14   1     0.02  -0.01  -0.00    -0.13   0.02   0.03     0.19  -0.07  -0.06
  15   1     0.02  -0.01   0.02     0.08  -0.03  -0.06    -0.03  -0.01   0.12
  16   1     0.02  -0.03   0.00     0.07   0.00  -0.04    -0.02  -0.12   0.03
  17   1     0.02  -0.00  -0.00     0.07  -0.09  -0.03    -0.01   0.10   0.02
  18   1     0.03   0.01  -0.00     0.03  -0.07  -0.01     0.03   0.04  -0.03
  19   1    -0.03   0.06  -0.01    -0.03  -0.06   0.00     0.05   0.04   0.02
  20   1     0.00   0.01  -0.05    -0.06  -0.05   0.02     0.04   0.05   0.02
  21   1     0.01  -0.00   0.04    -0.02   0.08   0.18     0.03  -0.04  -0.12
  22   1     0.03   0.01   0.03     0.10   0.20   0.04    -0.07  -0.09  -0.03
  23   1    -0.06   0.00   0.11    -0.00   0.09  -0.09    -0.02  -0.03   0.00
  24   1     0.06   0.05   0.04     0.02  -0.01  -0.04    -0.06  -0.00   0.00
  25   1    -0.11  -0.11  -0.06     0.03  -0.03  -0.03    -0.01   0.04   0.03
  26   1    -0.04  -0.00  -0.15     0.05  -0.01  -0.05    -0.04   0.01   0.06
  27   1     0.18   0.29   0.41    -0.08  -0.11   0.01    -0.03  -0.01  -0.11
  28   1     0.34  -0.06  -0.35    -0.13   0.02   0.10    -0.03   0.01   0.05
  29   1    -0.43  -0.14   0.00    -0.03   0.06   0.03     0.12   0.02  -0.01
                     10                     11                     12
                        a                      a                      a 
 Frequencies --   204.0711               330.4936               281.7713
 Red. masses --    99.0000                99.0000                99.0000
 Frc consts  --    99.0000                99.0000                99.0000
 IR Inten    --    99.0000                99.0000                99.0000
 Raman Activ --     0.0000                 0.0000                 0.0000
 Depolar     --     0.0000                 0.0000                 0.0000
 Atom AN      X      Y      Z        X      Y      Z        X      Y      Z
   1   6    -0.08  -0.02  -0.01    -0.24  -0.26  -0.08    -0.19  -0.24  -0.04
   2   6     0.01   0.02   0.08     0.00  -0.10   0.25    -0.19  -0.19   0.03
   3   6     0.10  -0.07   0.03     0.16   0.09  -0.28    -0.32   0.09  -0.02
   4   6     0.07  -0.03  -0.08     0.26   0.14   0.01    -0.17   0.29   0.14
   5   6    -0.06   0.24  -0.33     0.21   0.12   0.21     0.03   0.26  -0.05
   6   6     0.12   0.02   0.28     0.01  -0.05  -0.15     0.14   0.11   0.07
   7   6    -0.21  -0.22   0.12    -0.16  -0.04   0.04     0.25   0.04  -0.10
   8   6    -0.20  -0.06   0.07    -0.17   0.02   0.07     0.29  -0.14  -0.05
   9   6     0.22   0.07  -0.12    -0.02   0.07  -0.03     0.17  -0.19   0.05
  10   1    -0.07  -0.03  -0.00    -0.14  -0.18  -0.02    -0.02  -0.09  -0.01
  11   1    -0.01   0.00   0.02    -0.07  -0.08  -0.01    -0.08  -0.08  -0.05
  12   1    -0.01   0.00  -0.05    -0.08   0.00  -0.14    -0.08  -0.04   0.00
  13   1     0.02   0.02   0.05     0.05   0.00   0.20    -0.06  -0.08   0.01
  14   1    -0.02   0.02   0.02    -0.14  -0.01   0.07    -0.06  -0.06   0.01
  15   1     0.03  -0.01   0.04     0.01  -0.02  -0.23    -0.16  -0.01  -0.07
  16   1     0.06  -0.04   0.01     0.05   0.19  -0.07    -0.12   0.08  -0.00
  17   1    -0.00  -0.08  -0.02     0.15   0.05   0.00    -0.04   0.04   0.04
  18   1     0.06   0.02   0.04     0.06   0.04   0.02    -0.04   0.09   0.07
  19   1    -0.12   0.24  -0.09     0.11  -0.04   0.06    -0.00   0.15  -0.01
  20   1     0.01   0.03  -0.28     0.05   0.06   0.14     0.06   0.07  -0.08
  21   1     0.04  -0.05   0.22     0.07  -0.03  -0.15     0.03   0.03   0.06
  22   1     0.17   0.09   0.07    -0.09  -0.09  -0.04     0.07   0.07   0.02
  23   1    -0.07  -0.02  -0.05    -0.05  -0.02   0.03     0.06   0.03  -0.05
  24   1    -0.09  -0.14   0.03    -0.06   0.02   0.01     0.07  -0.02  -0.03
  25   1    -0.09   0.00   0.02    -0.05   0.03   0.02     0.10  -0.06  -0.01
  26   1    -0.09   0.01   0.01    -0.07   0.02   0.03     0.11  -0.05  -0.02
  27   1     0.01   0.05  -0.21    -0.01   0.06  -0.04     0.06  -0.07   0.04
  28   1     0.04  -0.01   0.09     0.01   0.01  -0.00     0.05  -0.05   0.00
  29   1     0.25   0.05  -0.04     0.03   0.01  -0.01     0.02  -0.05   0.01
                     13                     14                     15
                        a                      a                      a 
 Frequencies --   403.2010               454.8885               497.0143
 Red. masses --    99.0000                99.0000                99.0000
 Frc consts  --    99.0000                99.0000                99.0000
 IR Inten    --    99.0000                99.0000                99.0000
 Raman Activ --     0.0000                 0.0000                 0.0000
 Depolar     --     0.0000                 0.0000                 0.0000
 Atom AN      X      Y      Z        X      Y      Z        X      Y      Z
   1   6    -0.04  -0.07  -0.02    -0.06  -0.18  -0.06    -0.01  -0.01  -0.02
   2   6     0.07  -0.03   0.03     0.42  -0.01   0.15     0.24   0.05   0.10
   3   6    -0.01   0.09   0.01     0.00   0.40   0.16     0.22   0.04  -0.06
   4   6    -0.02   0.08  -0.01    -0.22  -0.06  -0.05     0.06  -0.01  -0.10
   5   6     0.07   0.01  -0.08    -0.04  -0.28  -0.16    -0.43   0.21   0.12
   6   6     0.08  -0.36   0.20     0.05   0.09  -0.02    -0.47  -0.08   0.14
   7   6     0.18  -0.27   0.08    -0.04   0.08   0.02     0.09  -0.01  -0.09
   8   6     0.10   0.30  -0.22    -0.06  -0.02   0.04     0.22  -0.05  -0.06
   9   6    -0.38   0.25   0.01     0.03  -0.00  -0.01     0.10  -0.14   0.04
  10   1    -0.01  -0.04  -0.01    -0.05  -0.15  -0.02    -0.03  -0.05  -0.01
  11   1    -0.03  -0.05  -0.01    -0.08  -0.17  -0.04    -0.03  -0.05  -0.01
  12   1    -0.03   0.02  -0.02    -0.11   0.11  -0.09    -0.04   0.07  -0.05
  13   1     0.01  -0.01  -0.01     0.06  -0.04  -0.11     0.08   0.04   0.03
  14   1     0.04  -0.01   0.01     0.27  -0.01   0.05     0.06   0.02   0.03
  15   1    -0.02   0.01  -0.02    -0.03   0.07  -0.11     0.07   0.00  -0.06
  16   1    -0.00   0.05   0.00     0.01   0.26   0.05     0.10   0.06  -0.01
  17   1    -0.02   0.02  -0.00    -0.13  -0.03  -0.01     0.05   0.01  -0.03
  18   1    -0.01   0.02   0.00    -0.16  -0.04  -0.01     0.06   0.01  -0.02
  19   1    -0.04   0.09  -0.02    -0.00  -0.13  -0.05    -0.22   0.15   0.04
  20   1     0.10  -0.00  -0.13    -0.04  -0.07   0.02    -0.10   0.03  -0.09
  21   1     0.04  -0.12   0.06    -0.05   0.04   0.10    -0.12   0.00  -0.08
  22   1     0.06  -0.11   0.06     0.10   0.09  -0.01    -0.25  -0.07   0.04
  23   1     0.11  -0.11   0.01    -0.04   0.04   0.01     0.07  -0.04  -0.02
  24   1     0.11  -0.12   0.02    -0.02   0.04   0.00     0.06  -0.03  -0.02
  25   1     0.01   0.09  -0.06    -0.02  -0.01   0.01     0.09  -0.02  -0.02
  26   1     0.01   0.09  -0.05    -0.01  -0.01   0.00     0.08  -0.03  -0.01
  27   1    -0.10  -0.10   0.09     0.01   0.03  -0.02     0.03  -0.07   0.03
  28   1    -0.21   0.13   0.01     0.03  -0.01  -0.01     0.01  -0.03   0.02
  29   1    -0.21   0.13   0.00     0.02  -0.02  -0.00     0.01  -0.03   0.01
                     16                     17                     18
                        a                      a                      a 
 Frequencies --   764.1629               776.7807               804.7249
 Red. masses --    99.0000                99.0000                99.0000
 Frc consts  --    99.0000                99.0000                99.0000
 IR Inten    --    99.0000                99.0000                99.0000
 Raman Activ --     0.0000                 0.0000                 0.0000
 Depolar     --     0.0000                 0.0000                 0.0000
 Atom AN      X      Y      Z        X      Y      Z        X      Y      Z
   1   6     0.01  -0.03   0.01    -0.02   0.04  -0.01     0.07  -0.03  -0.04
   2   6     0.08  -0.00  -0.03    -0.07   0.00   0.03     0.22  -0.03  -0.17
   3   6     0.03   0.05  -0.08     0.01  -0.10   0.07    -0.01   0.07  -0.07
   4   6    -0.03   0.14  -0.06     0.06  -0.07   0.11    -0.09   0.01   0.13
   5   6    -0.08   0.07  -0.08     0.03  -0.02   0.06     0.06  -0.16   0.06
   6   6    -0.10  -0.06  -0.07    -0.02  -0.03  -0.04     0.04   0.00   0.03
   7   6    -0.04  -0.11  -0.07    -0.05  -0.04  -0.13     0.00   0.07  -0.04
   8   6     0.01  -0.02  -0.08    -0.06  -0.07  -0.10    -0.05  -0.03  -0.01
   9   6     0.01  -0.01  -0.00    -0.01  -0.01  -0.01    -0.02   0.00  -0.01
  10   1    -0.04   0.03   0.01     0.04  -0.02  -0.01    -0.14   0.24   0.00
  11   1    -0.02  -0.08   0.04     0.02   0.09  -0.05    -0.04  -0.30   0.21
  12   1    -0.03   0.04   0.00     0.03  -0.04  -0.00    -0.09   0.11   0.05
  13   1     0.05  -0.03   0.11    -0.03   0.04  -0.09     0.14  -0.13   0.40
  14   1    -0.10   0.02  -0.01     0.09  -0.02   0.01    -0.36   0.18  -0.06
  15   1    -0.07   0.05   0.20     0.08  -0.07  -0.22    -0.02   0.05   0.10
  16   1     0.10  -0.20  -0.03    -0.10   0.20   0.03    -0.07  -0.13  -0.03
  17   1     0.09  -0.30  -0.02    -0.07   0.29   0.03    -0.02   0.15   0.04
  18   1    -0.03   0.14   0.32     0.07  -0.10  -0.28    -0.15  -0.08  -0.11
  19   1     0.03  -0.23  -0.03     0.02   0.18   0.02    -0.02   0.21   0.02
  20   1     0.03   0.10   0.23    -0.02  -0.06  -0.15     0.01  -0.11  -0.22
  21   1    -0.02  -0.10   0.23     0.01  -0.07   0.15    -0.02   0.04  -0.04
  22   1     0.11   0.20  -0.03     0.03   0.17  -0.02    -0.05  -0.03   0.01
  23   1    -0.04  -0.12   0.30    -0.09  -0.08   0.30    -0.05   0.05  -0.01
  24   1     0.18   0.24  -0.02     0.20   0.27  -0.03     0.01   0.01  -0.01
  25   1     0.16   0.15  -0.01     0.21   0.23  -0.02     0.04   0.06  -0.00
  26   1    -0.07  -0.04   0.19    -0.10  -0.08   0.29    -0.02  -0.03   0.07
  27   1     0.01  -0.02   0.03     0.01   0.03   0.03     0.00   0.04   0.00
  28   1     0.02  -0.04   0.06     0.06  -0.08   0.10     0.03  -0.04   0.03
  29   1    -0.01   0.08   0.00    -0.01   0.14   0.00     0.01   0.04  -0.00
                     19                     20                     21
                        a                      a                      a 
 Frequencies --   818.3864              1505.3380              1511.2836
 Red. masses --    99.0000                99.0000                99.0000
 Frc consts  --    99.0000                99.0000                99.0000
 IR Inten    --    99.0000                99.0000                99.0000
 Raman Activ --     0.0000                 0.0000                 0.0000
 Depolar     --     0.0000                 0.0000                 0.0000
 Atom AN      X      Y      Z        X      Y      Z        X      Y      Z
   1   6     0.01   0.05  -0.04    -0.01  -0.00   0.00     0.03   0.07   0.20
   2   6     0.07  -0.02  -0.04    -0.01   0.00  -0.00     0.03   0.02   0.06
   3   6     0.04  -0.12   0.02    -0.00   0.01   0.01    -0.00   0.01   0.00
   4   6     0.01   0.06   0.15     0.00   0.00   0.00    -0.02   0.01   0.00
   5   6    -0.06   0.03  -0.05    -0.00   0.00   0.00     0.01  -0.00   0.01
   6   6    -0.15  -0.11  -0.16     0.00   0.00   0.01    -0.00   0.00  -0.00
   7   6    -0.03  -0.06  -0.04    -0.00  -0.00   0.01    -0.00  -0.00   0.00
   8   6     0.10   0.11   0.15    -0.02  -0.02  -0.03    -0.00  -0.00   0.00
   9   6     0.04   0.02   0.06    -0.07  -0.10  -0.17    -0.01  -0.00   0.01
  10   1    -0.03   0.11  -0.01     0.05   0.01  -0.00    -0.14   0.32   0.02
  11   1    -0.00  -0.05   0.05     0.00  -0.01   0.02    -0.36  -0.33  -0.47
  12   1    -0.02   0.02   0.03     0.01   0.01  -0.04     0.37  -0.31  -0.35
  13   1     0.06  -0.01   0.12     0.00   0.00   0.01    -0.02   0.01  -0.07
  14   1    -0.09   0.08  -0.01     0.01  -0.00   0.00    -0.06  -0.01   0.01
  15   1     0.04  -0.07  -0.15     0.00  -0.00  -0.02     0.00  -0.01  -0.03
  16   1    -0.10   0.11   0.01     0.00  -0.02  -0.00    -0.01  -0.04  -0.00
  17   1    -0.07   0.14   0.04     0.00  -0.00   0.00     0.01  -0.01  -0.00
  18   1     0.10   0.00  -0.10    -0.00  -0.00  -0.00     0.05   0.01  -0.01
  19   1     0.10  -0.03  -0.02     0.00  -0.00  -0.00     0.00  -0.01   0.00
  20   1    -0.02   0.03   0.05     0.00  -0.00  -0.00    -0.01  -0.01  -0.02
  21   1    -0.07  -0.12   0.31    -0.00   0.00  -0.01     0.00  -0.00   0.01
  22   1     0.16   0.27  -0.06     0.00  -0.00   0.00    -0.00  -0.01   0.00
  23   1     0.12  -0.15   0.09     0.02  -0.01  -0.02     0.00   0.00  -0.02
  24   1    -0.07   0.15  -0.01    -0.00   0.03  -0.00     0.01   0.01  -0.00
  25   1    -0.13  -0.30   0.03    -0.00   0.03  -0.01     0.00  -0.00   0.00
  26   1     0.04   0.15  -0.30     0.01  -0.02   0.00    -0.00  -0.00   0.00
  27   1    -0.03  -0.07  -0.07     0.23   0.34   0.58    -0.00  -0.02   0.00
  28   1    -0.12   0.16  -0.17    -0.40   0.20   0.13     0.01   0.00  -0.03
  29   1     0.04  -0.26   0.01     0.46  -0.11  -0.02     0.02   0.02   0.00
                     22                     23                     24
                        a                      a                      a 
 Frequencies --   856.4885               927.4351              1508.3750
 Red. masses --    99.0000                99.0000                99.0000
 Frc consts  --    99.0000                99.0000                99.0000
 IR Inten    --    99.0000                99.0000                99.0000
 Raman Activ --     0.0000                 0.0000                 0.0000
 Depolar     --     0.0000                 0.0000                 0.0000
 Atom AN      X      Y      Z        X      Y      Z        X      Y      Z
   1   6     0.01   0.11  -0.10     0.03   0.15   0.09     0.08  -0.00  -0.02
   2   6     0.12  -0.05  -0.03     0.11  -0.00   0.08     0.03   0.00   0.00
   3   6    -0.00  -0.23   0.14    -0.01  -0.12  -0.21     0.01  -0.03  -0.02
   4   6    -0.07  -0.02   0.03    -0.02   0.15   0.19    -0.01   0.04   0.03
   5   6    -0.12   0.18  -0.16    -0.02  -0.11  -0.06    -0.00  -0.01  -0.01
   6   6     0.05   0.08  -0.00    -0.15  -0.11  -0.13    -0.00   0.01  -0.00
   7   6     0.02  -0.07   0.17     0.03   0.11   0.16    -0.01  -0.05   0.03
   8   6     0.03  -0.03  -0.10     0.02   0.02  -0.02    -0.08  -0.03   0.05
   9   6     0.01  -0.03  -0.05    -0.02  -0.09  -0.10    -0.15  -0.05   0.09
  10   1    -0.04   0.21  -0.02     0.01  -0.23   0.01    -0.25  -0.05   0.00
  11   1    -0.00  -0.07   0.09    -0.03   0.09  -0.12    -0.00   0.09  -0.12
  12   1    -0.03   0.03   0.06    -0.02   0.16  -0.14    -0.06  -0.02   0.20
  13   1     0.06  -0.04   0.14     0.07   0.10   0.02    -0.01  -0.02  -0.02
  14   1    -0.06   0.16  -0.01    -0.03  -0.19   0.02    -0.03   0.00  -0.00
  15   1     0.03  -0.14  -0.29    -0.03  -0.01   0.05    -0.01   0.02   0.09
  16   1    -0.14   0.24   0.05    -0.06  -0.16  -0.06    -0.03   0.09   0.00
  17   1    -0.22  -0.04   0.01     0.06   0.13   0.05     0.04  -0.13  -0.00
  18   1     0.18   0.05  -0.02    -0.01   0.01  -0.02     0.01  -0.04  -0.13
  19   1     0.05  -0.27  -0.05     0.15   0.04  -0.02    -0.00   0.03   0.00
  20   1    -0.06   0.13   0.28    -0.00  -0.03  -0.03     0.00   0.01   0.03
  21   1     0.02   0.05  -0.09    -0.17   0.00   0.18     0.00  -0.01   0.02
  22   1     0.07  -0.14   0.00     0.17   0.08  -0.04    -0.01  -0.03   0.00
  23   1     0.01   0.03  -0.10     0.15   0.01  -0.16     0.02   0.04  -0.15
  24   1    -0.02  -0.18   0.05    -0.21  -0.08   0.04     0.08   0.13  -0.00
  25   1    -0.01   0.15  -0.02    -0.18   0.15  -0.01     0.09   0.08   0.01
  26   1     0.03  -0.07   0.09     0.19  -0.13   0.01     0.04   0.01  -0.11
  27   1     0.03  -0.03   0.08     0.04   0.02   0.10     0.01  -0.24   0.14
  28   1     0.04  -0.08   0.10     0.11  -0.17   0.16     0.20   0.06  -0.50
  29   1    -0.06   0.17  -0.01    -0.07   0.25  -0.02     0.41   0.36   0.01
                     25                     26                     27
                        a                      a                      a 
 Frequencies --  1507.2352               984.1615               931.4710
 Red. masses --    99.0000                99.0000                99.0000
 Frc consts  --    99.0000                99.0000                99.0000
 IR Inten    --    99.0000                99.0000                99.0000
 Raman Activ --     0.0000                 0.0000                 0.0000
 Depolar     --     0.0000                 0.0000                 0.0000
 Atom AN      X      Y      Z        X      Y      Z        X      Y      Z
   1   6    -0.16  -0.01   0.02     0.07  -0.17   0.14    -0.09  -0.37  -0.02
   2   6    -0.07  -0.00  -0.02    -0.05   0.14  -0.12    -0.24   0.06  -0.20
   3   6    -0.02   0.06   0.05     0.03   0.19  -0.06     0.19   0.33   0.16
   4   6     0.02  -0.05  -0.04    -0.02  -0.21   0.09     0.20   0.03   0.03
   5   6     0.00   0.02   0.01    -0.22   0.24   0.00     0.01  -0.06  -0.08
   6   6    -0.01  -0.01   0.01     0.11   0.11  -0.13    -0.19  -0.04  -0.04
   7   6     0.02   0.01  -0.02     0.22  -0.21   0.04    -0.06   0.05   0.12
   8   6    -0.06  -0.03   0.04    -0.02  -0.10   0.07     0.05   0.05  -0.04
   9   6    -0.08  -0.01   0.06    -0.19   0.13   0.00     0.05  -0.09  -0.06
  10   1     0.53   0.08  -0.01    -0.01  -0.20   0.03     0.04   0.16   0.00
  11   1     0.04  -0.14   0.29    -0.02  -0.09  -0.02     0.06  -0.02   0.10
  12   1     0.08   0.08  -0.37    -0.02   0.05  -0.06     0.07  -0.34   0.19
  13   1     0.02   0.03   0.08    -0.01   0.02  -0.00    -0.07  -0.02  -0.04
  14   1     0.09  -0.02   0.00    -0.11  -0.10  -0.04    -0.03   0.13  -0.05
  15   1     0.02  -0.04  -0.18     0.22   0.14   0.12     0.14   0.12   0.07
  16   1     0.05  -0.19  -0.01    -0.13  -0.13  -0.02     0.08   0.08   0.04
  17   1    -0.05   0.18   0.00    -0.09   0.13   0.02     0.04   0.05   0.01
  18   1    -0.01   0.05   0.18     0.05  -0.09  -0.16     0.04  -0.01  -0.03
  19   1     0.01  -0.06  -0.00     0.08  -0.06  -0.00     0.07  -0.02  -0.02
  20   1    -0.00  -0.02  -0.06    -0.24   0.05   0.15    -0.02  -0.02   0.00
  21   1     0.00   0.01  -0.02     0.09  -0.01  -0.03    -0.11  -0.01   0.11
  22   1     0.01   0.02  -0.00     0.10  -0.01  -0.03     0.05   0.06  -0.01
  23   1    -0.02  -0.01   0.07     0.11  -0.09   0.02     0.08  -0.02  -0.07
  24   1    -0.04  -0.05  -0.00     0.11  -0.09   0.01    -0.14  -0.04   0.03
  25   1     0.09   0.09   0.01     0.04  -0.06   0.02    -0.11   0.10  -0.01
  26   1     0.04   0.02  -0.12     0.04  -0.06   0.02     0.11  -0.05  -0.01
  27   1    -0.01  -0.16   0.03    -0.07   0.24  -0.11     0.05  -0.07   0.10
  28   1     0.14   0.02  -0.27     0.07  -0.03  -0.02     0.04  -0.08   0.09
  29   1     0.18   0.19   0.01     0.07  -0.02  -0.00    -0.07   0.15  -0.01
                     28                     29                     30
                        a                      a                      a 
 Frequencies --  1177.8922              1498.8621               936.5577
 Red. masses --    99.0000                99.0000                99.0000
 Frc consts  --    99.0000                99.0000                99.0000
 IR Inten    --    99.0000                99.0000                99.0000
 Raman Activ --     0.0000                 0.0000                 0.0000
 Depolar     --     0.0000                 0.0000                 0.0000
 Atom AN      X      Y      Z        X      Y      Z        X      Y      Z
   1   6     0.02  -0.03  -0.13    -0.02  -0.02   0.01    -0.05  -0.00  -0.05
   2   6    -0.03   0.04   0.24    -0.09   0.04  -0.06    -0.01  -0.03  -0.01
   3   6    -0.00  -0.02  -0.27    -0.02   0.08   0.06     0.05  -0.06   0.07
   4   6     0.01   0.03   0.30    -0.01   0.11   0.08     0.03   0.14  -0.02
   5   6     0.00  -0.01  -0.32    -0.02  -0.01   0.00     0.04  -0.09  -0.06
   6   6     0.01   0.02   0.31    -0.04  -0.03   0.04    -0.09  -0.21   0.11
   7   6    -0.01   0.02  -0.26    -0.09  -0.11   0.10     0.28   0.21  -0.19
   8   6    -0.03   0.02   0.21    -0.02  -0.07   0.05    -0.18  -0.09   0.13
   9   6     0.02  -0.01  -0.12     0.03   0.02  -0.01    -0.29   0.08   0.04
  10   1    -0.02   0.17  -0.03     0.05   0.05   0.00     0.02   0.10  -0.01
  11   1     0.02  -0.07   0.08     0.01   0.01   0.01     0.02   0.04   0.02
  12   1    -0.01  -0.04   0.07     0.00   0.03  -0.06     0.02  -0.08   0.06
  13   1    -0.05   0.00  -0.09     0.06  -0.03   0.24     0.01   0.01   0.00
  14   1     0.17   0.02   0.06     0.24  -0.10   0.01     0.02   0.07   0.00
  15   1    -0.01   0.03   0.08     0.01  -0.05  -0.22    -0.02  -0.05  -0.08
  16   1     0.07  -0.14  -0.07     0.05  -0.22  -0.01     0.02   0.10   0.02
  17   1    -0.02   0.17   0.07     0.06  -0.30  -0.00    -0.02  -0.08  -0.01
  18   1    -0.03  -0.05  -0.09     0.01  -0.09  -0.29     0.09   0.09   0.09
  19   1     0.05  -0.18  -0.08     0.01   0.02   0.00    -0.07  -0.05  -0.01
  20   1    -0.14   0.00   0.10     0.01   0.01   0.01     0.18   0.03  -0.02
  21   1     0.15  -0.05  -0.11     0.03   0.02  -0.14    -0.10  -0.01   0.07
  22   1    -0.14  -0.13   0.08     0.09   0.11  -0.00    -0.02   0.00   0.03
  23   1     0.06  -0.09   0.09     0.08   0.08  -0.38     0.15   0.02  -0.09
  24   1     0.05   0.15  -0.06     0.23   0.32   0.00     0.07   0.00  -0.05
  25   1    -0.12  -0.06   0.05     0.11   0.18   0.00     0.02  -0.07   0.04
  26   1     0.05   0.01  -0.07     0.02   0.06  -0.20     0.10  -0.13   0.04
  27   1     0.03  -0.05   0.07    -0.01   0.04  -0.06    -0.10   0.46  -0.20
  28   1    -0.00  -0.03   0.06    -0.03  -0.03   0.12     0.20  -0.16   0.01
  29   1    -0.07   0.13  -0.02    -0.12  -0.09  -0.00     0.17  -0.05   0.00
                     31                     32                     33
                        a                      a                      a 
 Frequencies --  1493.3823              1495.7417               993.1278
 Red. masses --    99.0000                99.0000                99.0000
 Frc consts  --    99.0000                99.0000                99.0000
 IR Inten    --    99.0000                99.0000                99.0000
 Raman Activ --     0.0000                 0.0000                 0.0000
 Depolar     --     0.0000                 0.0000                 0.0000
 Atom AN      X      Y      Z        X      Y      Z        X      Y      Z
   1   6     0.02   0.00  -0.02     0.07  -0.02   0.00    -0.09  -0.09   0.10
   2   6     0.11  -0.05   0.10    -0.10   0.07  -0.10     0.05   0.04  -0.12
   3   6    -0.02   0.06   0.06    -0.05   0.08   0.06     0.20  -0.01  -0.06
   4   6     0.00   0.02   0.01     0.04  -0.02  -0.02    -0.03   0.22   0.23
   5   6    -0.02   0.05   0.05     0.01  -0.06  -0.04     0.01  -0.16  -0.24
   6   6    -0.08  -0.12   0.12    -0.02  -0.07   0.05    -0.11  -0.00   0.16
   7   6    -0.04  -0.02   0.02     0.04   0.09  -0.07    -0.06   0.07  -0.02
   8   6     0.04   0.05  -0.05     0.02   0.06  -0.04    -0.03  -0.00  -0.11
   9   6    -0.01  -0.01   0.01    -0.02  -0.02   0.01     0.07  -0.00   0.10
  10   1    -0.03  -0.05  -0.00    -0.25   0.01   0.01     0.07  -0.14   0.02
  11   1     0.02   0.02   0.03    -0.03   0.07  -0.17     0.03   0.16  -0.08
  12   1    -0.03   0.01   0.07    -0.03  -0.03   0.13     0.07  -0.13  -0.01
  13   1    -0.08   0.05  -0.35     0.09  -0.06   0.36     0.12   0.21   0.07
  14   1    -0.34   0.14  -0.01     0.35  -0.15   0.01    -0.14  -0.13  -0.04
  15   1     0.04  -0.05  -0.23     0.02  -0.06  -0.26     0.11   0.02  -0.00
  16   1     0.07  -0.22  -0.01     0.08  -0.26  -0.01    -0.14  -0.06  -0.02
  17   1    -0.01   0.01   0.00    -0.06   0.06   0.00    -0.15   0.08   0.06
  18   1    -0.01   0.01   0.01    -0.02   0.02   0.07     0.03   0.05   0.01
  19   1     0.05  -0.18  -0.00    -0.05   0.16   0.00     0.06  -0.13  -0.07
  20   1    -0.00  -0.06  -0.18    -0.02   0.04   0.16     0.04  -0.00   0.03
  21   1     0.05   0.10  -0.41     0.02   0.05  -0.20    -0.19   0.14  -0.04
  22   1     0.25   0.34  -0.01     0.11   0.17  -0.01     0.06  -0.19   0.04
  23   1     0.04   0.00  -0.08    -0.04  -0.07   0.26    -0.20   0.15  -0.01
  24   1     0.06   0.06   0.00    -0.14  -0.23  -0.00     0.19  -0.13   0.00
  25   1    -0.11  -0.15  -0.00    -0.09  -0.14  -0.00     0.21  -0.04  -0.02
  26   1    -0.04  -0.05   0.18    -0.02  -0.05   0.16    -0.19   0.09   0.06
  27   1     0.00  -0.01   0.00     0.01  -0.03   0.03    -0.01  -0.07  -0.04
  28   1     0.01   0.01  -0.05     0.02   0.02  -0.08    -0.08   0.11  -0.09
  29   1     0.03   0.04   0.00     0.07   0.06   0.00     0.04  -0.18   0.02
                     34                     35                     36
                        a                      a                      a 
 Frequencies --  1225.9756              1490.3315              1037.8525
 Red. masses --    99.0000                99.0000                99.0000
 Frc consts  --    99.0000                99.0000                99.0000
 IR Inten    --    99.0000                99.0000                99.0000
 Raman Activ --     0.0000                 0.0000                 0.0000
 Depolar     --     0.0000                 0.0000                 0.0000
 Atom AN      X      Y      Z        X      Y      Z        X      Y      Z
   1   6    -0.05   0.01  -0.02    -0.01   0.01   0.01     0.08   0.14  -0.10
   2   6     0.07  -0.02   0.03    -0.09   0.04  -0.08    -0.12  -0.11   0.14
   3   6    -0.06   0.02   0.02     0.03  -0.12  -0.11    -0.15   0.04   0.02
   4   6    -0.05  -0.04  -0.10    -0.01  -0.04  -0.03     0.30   0.04   0.03
   5   6    -0.04  -0.01   0.12    -0.02   0.11   0.10    -0.04  -0.06  -0.12
   6   6     0.04   0.05  -0.03    -0.05  -0.06   0.07    -0.18   0.05  -0.05
   7   6    -0.10  -0.15  -0.12    -0.03  -0.02   0.02     0.05  -0.07   0.11
   8   6     0.17   0.19   0.27     0.02   0.02  -0.02    -0.01  -0.04  -0.08
   9   6    -0.12  -0.15  -0.23    -0.00  -0.00   0.00    -0.03   0.03   0.07
  10   1     0.02   0.02  -0.00     0.02   0.02  -0.00    -0.07   0.12  -0.02
  11   1     0.01   0.05  -0.01    -0.02  -0.02  -0.02    -0.03  -0.13   0.06
  12   1     0.01  -0.03   0.01     0.03  -0.02  -0.04    -0.07   0.14  -0.01
  13   1     0.00  -0.06   0.02     0.07  -0.05   0.29    -0.14  -0.23  -0.08
  14   1    -0.01  -0.02   0.01     0.28  -0.11   0.01     0.13   0.06   0.04
  15   1     0.15   0.05   0.01    -0.04   0.09   0.37    -0.15  -0.01   0.04
  16   1    -0.09  -0.02   0.00    -0.09   0.37   0.01     0.15   0.02   0.01
  17   1     0.04  -0.04  -0.02    -0.03   0.10   0.00     0.31   0.12   0.01
  18   1     0.12   0.04   0.02     0.02   0.04   0.10     0.00  -0.02  -0.04
  19   1     0.05   0.08   0.03     0.10  -0.34  -0.01     0.26   0.02  -0.03
  20   1     0.17   0.04  -0.03     0.01  -0.10  -0.34    -0.19  -0.06   0.01
  21   1    -0.24   0.21  -0.02     0.03   0.06  -0.25    -0.23   0.13   0.04
  22   1     0.18  -0.14  -0.01     0.15   0.21  -0.01     0.21  -0.11  -0.01
  23   1    -0.20   0.03   0.10     0.02   0.01  -0.08    -0.06   0.06  -0.04
  24   1     0.17   0.01  -0.02     0.04   0.07   0.00     0.17  -0.21   0.03
  25   1     0.04  -0.27   0.06    -0.05  -0.07  -0.00     0.16  -0.03  -0.02
  26   1    -0.08   0.23  -0.18    -0.02  -0.02   0.08    -0.10   0.02   0.06
  27   1     0.03   0.08   0.09    -0.00  -0.00  -0.00    -0.03   0.05  -0.06
  28   1     0.12  -0.22   0.16     0.00   0.01  -0.02    -0.01   0.04  -0.06
  29   1    -0.04   0.26  -0.05     0.01   0.02   0.00     0.06  -0.11   0.01
                     37                     38                     39
                        a                      a                      a 
 Frequencies --  1498.1051              1488.6625              1099.9061
 Red. masses --    99.0000                99.0000                99.0000
 Frc consts  --    99.0000                99.0000                99.0000
 IR Inten    --    99.0000                99.0000                99.0000
 Raman Activ --     0.0000                 0.0000                 0.0000
 Depolar     --     0.0000                 0.0000                 0.0000
 Atom AN      X      Y      Z        X      Y      Z        X      Y      Z
   1   6    -0.06   0.01   0.01     0.05   0.01  -0.01    -0.16   0.20  -0.05
   2   6     0.00  -0.02   0.01     0.01   0.01  -0.01     0.12  -0.30  -0.03
   3   6     0.02  -0.08  -0.07    -0.04   0.01   0.02    -0.05   0.20   0.13
   4   6     0.02  -0.01  -0.01     0.06  -0.17  -0.13     0.24   0.01  -0.02
   5   6     0.04  -0.17  -0.13     0.03  -0.02  -0.03     0.05  -0.09  -0.11
   6   6    -0.05  -0.08   0.06    -0.00   0.03  -0.02    -0.05   0.23   0.02
   7   6    -0.05  -0.02   0.03    -0.07  -0.10   0.09     0.04  -0.21   0.02
   8   6     0.04   0.04  -0.03     0.01  -0.03   0.01    -0.07   0.26  -0.06
   9   6    -0.00  -0.01   0.01     0.01   0.00  -0.01    -0.03  -0.21   0.10
  10   1     0.20   0.03  -0.00    -0.16  -0.03   0.00     0.06   0.03  -0.02
  11   1     0.00  -0.07   0.10    -0.01   0.03  -0.08     0.02   0.23  -0.09
  12   1     0.05   0.01  -0.15    -0.02  -0.03   0.12     0.05  -0.07  -0.01
  13   1    -0.01   0.01  -0.04     0.01  -0.01   0.03     0.09  -0.02   0.11
  14   1    -0.04   0.02  -0.00     0.02  -0.01   0.00    -0.15  -0.18  -0.01
  15   1    -0.03   0.06   0.25     0.03  -0.02  -0.10    -0.18   0.02   0.06
  16   1    -0.07   0.24   0.01     0.05  -0.09  -0.01    -0.13  -0.02   0.03
  17   1    -0.01  -0.01  -0.00    -0.15   0.51   0.00    -0.03  -0.00  -0.00
  18   1    -0.01  -0.01  -0.00    -0.06   0.14   0.50     0.00  -0.02  -0.02
  19   1    -0.14   0.48   0.01    -0.03   0.06  -0.00    -0.09  -0.06  -0.03
  20   1    -0.02   0.13   0.48    -0.01   0.01   0.07    -0.17  -0.08  -0.02
  21   1     0.04   0.04  -0.23    -0.01  -0.02   0.09     0.10   0.00  -0.08
  22   1     0.14   0.19  -0.01    -0.05  -0.08   0.00    -0.19   0.07   0.01
  23   1     0.04   0.02  -0.13     0.08   0.07  -0.34     0.16  -0.18   0.07
  24   1     0.11   0.10  -0.00     0.20   0.29   0.00     0.07  -0.01   0.01
  25   1    -0.11  -0.13  -0.00     0.01   0.03   0.00    -0.10   0.06  -0.02
  26   1    -0.04  -0.04   0.16    -0.01   0.02  -0.03     0.01   0.06  -0.06
  27   1    -0.00  -0.01  -0.00    -0.00   0.02  -0.01    -0.01   0.07  -0.02
  28   1     0.01   0.01  -0.03    -0.01  -0.00   0.03     0.10  -0.14   0.04
  29   1     0.01   0.03   0.00    -0.03  -0.02  -0.00     0.08  -0.07   0.03
                     40                     41                     42
                        a                      a                      a 
 Frequencies --  1501.1427              1029.2355              1195.9392
 Red. masses --    99.0000                99.0000                99.0000
 Frc consts  --    99.0000                99.0000                99.0000
 IR Inten    --    99.0000                99.0000                99.0000
 Raman Activ --     0.0000                 0.0000                 0.0000
 Depolar     --     0.0000                 0.0000                 0.0000
 Atom AN      X      Y      Z        X      Y      Z        X      Y      Z
   1   6    -0.03  -0.01   0.00    -0.19  -0.02  -0.10    -0.08  -0.00  -0.22
   2   6    -0.04   0.01  -0.02     0.15  -0.05   0.07     0.11  -0.02   0.34
   3   6    -0.00   0.03   0.03     0.16  -0.09  -0.11    -0.11   0.07  -0.25
   4   6    -0.01   0.04   0.03    -0.23   0.11   0.07    -0.03  -0.06   0.07
   5   6    -0.01   0.03   0.02    -0.21  -0.03   0.12    -0.01  -0.04   0.07
   6   6     0.05   0.08  -0.07     0.15   0.13  -0.20     0.04   0.04  -0.16
   7   6    -0.03  -0.04   0.04     0.13  -0.19   0.08    -0.02  -0.05   0.19
   8   6     0.11   0.14  -0.12     0.02  -0.13   0.06     0.04  -0.02  -0.17
   9   6    -0.01  -0.02   0.02    -0.06   0.13  -0.05    -0.02   0.02   0.10
  10   1     0.11   0.02  -0.00     0.09   0.17  -0.02     0.01   0.26  -0.04
  11   1     0.01  -0.01   0.06     0.07   0.23  -0.01     0.05   0.02   0.09
  12   1     0.01   0.03  -0.08     0.11  -0.30   0.13    -0.00  -0.12   0.12
  13   1     0.02  -0.00   0.08     0.12   0.19   0.04    -0.03  -0.06  -0.06
  14   1     0.08  -0.03   0.00     0.07   0.10   0.02     0.15  -0.09   0.09
  15   1     0.00  -0.02  -0.09    -0.18  -0.08  -0.02     0.22   0.13   0.12
  16   1     0.02  -0.09  -0.00     0.24   0.01  -0.02    -0.17  -0.21  -0.07
  17   1     0.04  -0.11  -0.00     0.13   0.04   0.02    -0.15   0.01   0.02
  18   1     0.00  -0.03  -0.11    -0.24  -0.01   0.06     0.27   0.05  -0.05
  19   1     0.03  -0.08  -0.00     0.06   0.12   0.03    -0.19  -0.01   0.02
  20   1     0.02  -0.02  -0.08    -0.20  -0.07  -0.04     0.25   0.05  -0.03
  21   1    -0.03  -0.07   0.28    -0.00   0.05  -0.02    -0.08   0.06   0.03
  22   1    -0.16  -0.24   0.01     0.11   0.02  -0.05    -0.05   0.13  -0.04
  23   1     0.04   0.04  -0.19    -0.01  -0.02   0.01    -0.00   0.02  -0.04
  24   1     0.12   0.16  -0.00     0.02  -0.06   0.02    -0.09  -0.05   0.05
  25   1    -0.31  -0.43  -0.01    -0.01  -0.03   0.02     0.08   0.07  -0.04
  26   1    -0.11  -0.12   0.51    -0.01  -0.02   0.02    -0.02  -0.02   0.06
  27   1    -0.00  -0.02  -0.01    -0.02   0.04  -0.01    -0.03   0.04  -0.06
  28   1     0.02   0.03  -0.10    -0.03   0.04  -0.02     0.00   0.03  -0.05
  29   1     0.04   0.09   0.00    -0.02   0.04  -0.01     0.06  -0.11   0.02
                     43                     44                     45
                        a                      a                      a 
 Frequencies --  1084.1988              1147.7303              1112.9963
 Red. masses --    99.0000                99.0000                99.0000
 Frc consts  --    99.0000                99.0000                99.0000
 IR Inten    --    99.0000                99.0000                99.0000
 Raman Activ --     0.0000                 0.0000                 0.0000
 Depolar     --     0.0000                 0.0000                 0.0000
 Atom AN      X      Y      Z        X      Y      Z        X      Y      Z
   1   6    -0.01  -0.07  -0.02     0.16   0.01   0.00     0.08  -0.10   0.04
   2   6     0.04   0.09   0.05    -0.27  -0.01  -0.04    -0.06   0.15  -0.01
   3   6     0.03  -0.06  -0.11     0.29  -0.13  -0.02    -0.02  -0.08  -0.02
   4   6    -0.24  -0.17  -0.01    -0.11   0.31   0.15     0.05   0.16   0.04
   5   6     0.05   0.20   0.07    -0.08  -0.24  -0.03    -0.23  -0.12   0.06
   6   6     0.04  -0.14   0.04     0.11   0.19  -0.05     0.18   0.00  -0.14
   7   6    -0.13   0.15  -0.01    -0.20  -0.19   0.12     0.37  -0.06  -0.10
   8   6    -0.08   0.42  -0.23     0.21   0.14  -0.11    -0.40   0.17   0.05
   9   6     0.01  -0.36   0.22    -0.12  -0.06   0.06     0.15  -0.20   0.06
  10   1     0.01   0.04  -0.00    -0.08  -0.02   0.00    -0.03  -0.04   0.01
  11   1     0.02  -0.01   0.03    -0.04  -0.18   0.04    -0.01  -0.11   0.04
  12   1     0.02  -0.07   0.04    -0.06   0.17  -0.04    -0.03   0.05  -0.00
  13   1     0.01   0.05  -0.02    -0.11  -0.06  -0.10    -0.04   0.01  -0.04
  14   1     0.07   0.08   0.01     0.03  -0.05  -0.01     0.06   0.09   0.00
  15   1     0.01  -0.01   0.00     0.14  -0.03  -0.07     0.05  -0.01  -0.03
  16   1     0.13  -0.03  -0.03     0.18   0.09   0.00    -0.01   0.02  -0.00
  17   1     0.01   0.02  -0.00    -0.05   0.01   0.04     0.07   0.01   0.01
  18   1    -0.15  -0.08  -0.04    -0.05   0.09   0.10     0.13   0.09   0.06
  19   1     0.22   0.06   0.02    -0.17  -0.01  -0.00    -0.18  -0.00   0.02
  20   1    -0.04   0.05   0.07    -0.02  -0.08  -0.08     0.01  -0.03  -0.05
  21   1     0.09  -0.11   0.04     0.06   0.04  -0.08    -0.08   0.09  -0.02
  22   1     0.17  -0.11   0.01    -0.10   0.03  -0.01     0.03   0.05  -0.04
  23   1     0.03   0.01  -0.03    -0.03  -0.08   0.08     0.09  -0.01  -0.04
  24   1     0.07  -0.05  -0.00    -0.06   0.02   0.03     0.10  -0.02  -0.03
  25   1     0.04   0.08  -0.06     0.07  -0.03  -0.03    -0.25   0.16   0.01
  26   1     0.01   0.08  -0.05     0.14  -0.01  -0.06    -0.28   0.16   0.02
  27   1    -0.01   0.10  -0.06    -0.03   0.15  -0.06     0.04  -0.16   0.07
  28   1     0.15  -0.18   0.03     0.10  -0.10   0.01    -0.03  -0.02   0.04
  29   1     0.16  -0.19   0.05     0.09  -0.04   0.01    -0.03  -0.04   0.02
                     46                     47                     48
                        a                      a                      a 
 Frequencies --  1133.8163              1267.1317              1127.7626
 Red. masses --    99.0000                99.0000                99.0000
 Frc consts  --    99.0000                99.0000                99.0000
 IR Inten    --    99.0000                99.0000                99.0000
 Raman Activ --     0.0000                 0.0000                 0.0000
 Depolar     --     0.0000                 0.0000                 0.0000
 Atom AN      X      Y      Z        X      Y      Z        X      Y      Z
   1   6     0.01  -0.24   0.12     0.03   0.01   0.04     0.06  -0.13   0.05
   2   6     0.16   0.38   0.01    -0.05  -0.01  -0.04     0.01   0.20   0.00
   3   6    -0.36  -0.14  -0.02     0.04   0.02  -0.04    -0.05  -0.15  -0.08
   4   6     0.27   0.09  -0.04     0.15  -0.13   0.17    -0.17  -0.05  -0.07
   5   6    -0.07  -0.14  -0.05     0.03   0.19  -0.11     0.42   0.03  -0.07
   6   6     0.07   0.04  -0.00     0.02  -0.16  -0.09    -0.35   0.32   0.03
   7   6    -0.19  -0.03   0.05     0.16  -0.06   0.12     0.16  -0.26   0.09
   8   6     0.16   0.05  -0.08     0.15   0.03  -0.01    -0.04  -0.01   0.04
   9   6    -0.07  -0.01   0.02    -0.10  -0.08  -0.03    -0.02  -0.00   0.00
  10   1     0.03  -0.10   0.03    -0.01  -0.04   0.01    -0.01  -0.04   0.01
  11   1     0.02  -0.03   0.02    -0.02  -0.02  -0.02     0.00  -0.08   0.03
  12   1     0.02  -0.09   0.03     0.01   0.01  -0.02    -0.00  -0.00   0.01
  13   1     0.08   0.20   0.02     0.00   0.04  -0.01     0.01   0.10  -0.03
  14   1     0.09   0.29   0.01     0.02   0.09  -0.01     0.07   0.13   0.00
  15   1    -0.21  -0.07  -0.03    -0.26  -0.06   0.02    -0.00  -0.04  -0.05
  16   1    -0.25  -0.04  -0.01     0.11   0.00  -0.01     0.02  -0.00  -0.02
  17   1     0.18   0.02  -0.01    -0.06   0.10   0.04    -0.09  -0.08  -0.02
  18   1     0.09   0.03   0.01    -0.26  -0.17  -0.11    -0.09  -0.02   0.00
  19   1    -0.13  -0.05  -0.01    -0.29  -0.18  -0.03     0.23   0.08  -0.02
  20   1    -0.11  -0.07  -0.04     0.12   0.11   0.09     0.14   0.02  -0.04
  21   1     0.07  -0.02  -0.04    -0.11   0.02   0.05    -0.14   0.13  -0.02
  22   1    -0.00  -0.04   0.00    -0.18   0.23  -0.03    -0.27   0.19   0.01
  23   1    -0.02  -0.04   0.04    -0.28   0.24  -0.06     0.10  -0.12   0.04
  24   1    -0.06   0.04   0.01    -0.14   0.02   0.03     0.12  -0.12   0.03
  25   1     0.09  -0.04  -0.02     0.02  -0.03  -0.00    -0.07   0.02   0.01
  26   1     0.11  -0.03  -0.03    -0.22   0.20  -0.03    -0.04   0.02   0.01
  27   1    -0.02   0.09  -0.04    -0.01   0.10  -0.01    -0.00   0.01   0.00
  28   1     0.05  -0.05  -0.00     0.06  -0.09   0.03     0.00  -0.01   0.01
  29   1     0.05  -0.02   0.00     0.03   0.06  -0.01    -0.00   0.00   0.00
                     49                     50                     51
                        a                      a                      a 
 Frequencies --  1252.6674              1276.0750              1290.6798
 Red. masses --    99.0000                99.0000                99.0000
 Frc consts  --    99.0000                99.0000                99.0000
 IR Inten    --    99.0000                99.0000                99.0000
 Raman Activ --     0.0000                 0.0000                 0.0000
 Depolar     --     0.0000                 0.0000                 0.0000
 Atom AN      X      Y      Z        X      Y      Z        X      Y      Z
   1   6    -0.16   0.06   0.21     0.03  -0.00  -0.06     0.05  -0.02   0.02
   2   6     0.14  -0.09  -0.16     0.00   0.00   0.02    -0.05   0.01  -0.05
   3   6    -0.10   0.02  -0.08    -0.03  -0.02   0.12    -0.01   0.10  -0.09
   4   6    -0.14  -0.07   0.14    -0.02  -0.04  -0.07     0.11  -0.13   0.11
   5   6    -0.06  -0.04  -0.10    -0.07   0.07  -0.06    -0.01   0.01   0.11
   6   6     0.06   0.06   0.07     0.08  -0.02   0.12     0.01   0.03  -0.10
   7   6    -0.03  -0.05  -0.01     0.04  -0.21  -0.16    -0.15  -0.05  -0.11
   8   6     0.02  -0.02  -0.06     0.14  -0.02  -0.06    -0.03   0.06   0.08
   9   6    -0.00   0.02   0.05    -0.02   0.03   0.17     0.05   0.05   0.04
  10   1     0.08  -0.20   0.04    -0.01   0.05  -0.01    -0.02  -0.02   0.00
  11   1    -0.01   0.22  -0.14     0.00  -0.04   0.03    -0.01  -0.04   0.00
  12   1     0.04  -0.02  -0.08    -0.00  -0.01   0.02    -0.01   0.04  -0.01
  13   1    -0.07  -0.39   0.10     0.05   0.12   0.01     0.03   0.12  -0.03
  14   1     0.04   0.41  -0.04    -0.05  -0.16   0.00    -0.02   0.02  -0.01
  15   1     0.12   0.05   0.02     0.11   0.01  -0.03    -0.39  -0.05   0.06
  16   1     0.30   0.02  -0.02    -0.12   0.03   0.03     0.27   0.00  -0.02
  17   1     0.15   0.12   0.04     0.27   0.05  -0.02    -0.35  -0.02   0.03
  18   1     0.22   0.03  -0.06    -0.13  -0.04   0.01     0.19  -0.02  -0.07
  19   1     0.02  -0.04  -0.02     0.11  -0.01  -0.02    -0.14  -0.00   0.03
  20   1     0.20   0.07   0.03     0.11   0.08   0.06     0.16   0.04  -0.03
  21   1    -0.03   0.07  -0.06    -0.24   0.22  -0.06    -0.13   0.09   0.02
  22   1    -0.07  -0.01   0.02     0.01  -0.08   0.03     0.15  -0.08  -0.03
  23   1     0.05  -0.06   0.03    -0.23   0.06   0.09    -0.09  -0.01   0.06
  24   1    -0.10   0.09  -0.01    -0.16   0.24  -0.05     0.32  -0.12  -0.02
  25   1    -0.04   0.06  -0.02    -0.40   0.30  -0.02    -0.20   0.09   0.02
  26   1     0.02  -0.03   0.02     0.17  -0.11  -0.00     0.33  -0.21  -0.03
  27   1    -0.01   0.01  -0.03    -0.04   0.06  -0.08     0.01  -0.05   0.01
  28   1    -0.00   0.02  -0.03    -0.01   0.06  -0.08    -0.03   0.05  -0.02
  29   1     0.02  -0.05   0.01     0.06  -0.12   0.04     0.00  -0.06   0.01
                     52                     53                     54
                        a                      a                      a 
 Frequencies --  1293.3134              1283.4549              1300.6068
 Red. masses --    99.0000                99.0000                99.0000
 Frc consts  --    99.0000                99.0000                99.0000
 IR Inten    --    99.0000                99.0000                99.0000
 Raman Activ --     0.0000                 0.0000                 0.0000
 Depolar     --     0.0000                 0.0000                 0.0000
 Atom AN      X      Y      Z        X      Y      Z        X      Y      Z
   1   6     0.05  -0.01  -0.05     0.08  -0.04  -0.04     0.03  -0.04  -0.03
   2   6    -0.01  -0.03  -0.03    -0.05   0.02  -0.05     0.03   0.02  -0.04
   3   6    -0.08  -0.00   0.14    -0.05   0.08   0.03    -0.16   0.05   0.03
   4   6    -0.11  -0.12   0.08    -0.05  -0.12   0.04    -0.10  -0.01  -0.01
   5   6    -0.09  -0.01  -0.12    -0.02  -0.01   0.01    -0.11  -0.12  -0.05
   6   6    -0.03   0.11  -0.08     0.07   0.06   0.12     0.04  -0.10   0.02
   7   6    -0.08   0.06   0.06     0.01  -0.01   0.02     0.05   0.02   0.05
   8   6    -0.11   0.04   0.04    -0.00  -0.07  -0.11     0.13   0.00   0.04
   9   6     0.04   0.02  -0.05    -0.03  -0.02  -0.02    -0.05  -0.03   0.00
  10   1    -0.02   0.05  -0.01    -0.03   0.04  -0.01    -0.01   0.04  -0.01
  11   1     0.00  -0.05   0.02     0.00  -0.08   0.04     0.01  -0.02   0.02
  12   1    -0.01   0.01   0.01    -0.03   0.05   0.01    -0.03   0.03   0.01
  13   1     0.10   0.22   0.03     0.09   0.28  -0.01     0.07   0.16   0.02
  14   1    -0.07  -0.18  -0.01    -0.09  -0.17  -0.02    -0.09  -0.15  -0.01
  15   1     0.08   0.01  -0.02    -0.26  -0.04   0.03    -0.01   0.03   0.02
  16   1     0.08   0.08   0.04     0.25   0.06   0.01     0.25   0.06   0.01
  17   1     0.51   0.20   0.02    -0.03   0.02   0.01     0.04   0.01  -0.00
  18   1    -0.07  -0.06  -0.05     0.25   0.03  -0.05     0.44   0.13   0.01
  19   1    -0.18  -0.13  -0.03     0.07   0.04   0.01     0.33   0.09  -0.02
  20   1     0.41   0.15   0.02     0.08   0.03   0.02    -0.11  -0.06  -0.02
  21   1     0.15  -0.09  -0.02    -0.16   0.18  -0.06     0.20  -0.17   0.02
  22   1    -0.02   0.07  -0.03     0.07  -0.14   0.03    -0.31   0.23   0.00
  23   1     0.11  -0.06  -0.01     0.31  -0.21   0.01    -0.29   0.24  -0.04
  24   1     0.22  -0.19   0.02    -0.38   0.24  -0.00     0.09  -0.08   0.02
  25   1     0.12  -0.10   0.01     0.21  -0.07  -0.03    -0.12   0.05   0.01
  26   1     0.10  -0.08  -0.00    -0.25   0.13   0.04    -0.05   0.08  -0.03
  27   1     0.02  -0.06   0.04    -0.01   0.01  -0.02    -0.01   0.06  -0.01
  28   1    -0.01   0.00   0.02     0.02  -0.03   0.00     0.02  -0.02   0.00
  29   1    -0.03   0.01  -0.01    -0.00   0.02  -0.01     0.02   0.02   0.00
                     55                     56                     57
                        a                      a                      a 
 Frequencies --  1355.9420              1352.2109              1348.5569
 Red. masses --    99.0000                99.0000                99.0000
 Frc consts  --    99.0000                99.0000                99.0000
 IR Inten    --    99.0000                99.0000                99.0000
 Raman Activ --     0.0000                 0.0000                 0.0000
 Depolar     --     0.0000                 0.0000                 0.0000
 Atom AN      X      Y      Z        X      Y      Z        X      Y      Z
   1   6     0.08   0.03   0.05    -0.09   0.01  -0.05     0.02   0.01   0.01
   2   6    -0.19  -0.28   0.03     0.10   0.40   0.01    -0.05  -0.08   0.00
   3   6     0.28   0.15  -0.03     0.22  -0.04   0.02     0.05   0.03  -0.02
   4   6     0.02  -0.05  -0.06     0.02  -0.04   0.00    -0.01  -0.01   0.01
   5   6    -0.29  -0.07  -0.01    -0.21  -0.07  -0.02     0.01  -0.09   0.04
   6   6     0.11   0.01   0.04     0.03   0.05   0.02    -0.27   0.21  -0.02
   7   6    -0.00  -0.01   0.03    -0.01   0.02   0.01    -0.00   0.08  -0.05
   8   6    -0.06   0.04  -0.01     0.02  -0.02  -0.00     0.30  -0.22   0.01
   9   6     0.01   0.01  -0.01    -0.01  -0.00   0.00    -0.08  -0.04   0.06
  10   1    -0.05  -0.00   0.01     0.05  -0.08  -0.01    -0.02   0.00   0.00
  11   1    -0.02  -0.01  -0.05    -0.00  -0.04   0.07    -0.00   0.00  -0.01
  12   1    -0.03   0.10  -0.04     0.05  -0.16   0.08    -0.01   0.03  -0.01
  13   1     0.04   0.20  -0.03    -0.20  -0.45  -0.04     0.02   0.07  -0.01
  14   1     0.17   0.36   0.02    -0.12  -0.32  -0.01     0.05   0.10   0.00
  15   1    -0.19  -0.02   0.03    -0.36  -0.13  -0.06    -0.04  -0.00   0.01
  16   1    -0.37  -0.13  -0.02    -0.12  -0.03   0.00    -0.05  -0.03  -0.01
  17   1    -0.01   0.01  -0.02    -0.00   0.03   0.00    -0.00   0.01   0.01
  18   1     0.01   0.00   0.02    -0.02  -0.01   0.01     0.03   0.00   0.00
  19   1     0.35   0.09  -0.01     0.20   0.04  -0.01    -0.08  -0.00   0.01
  20   1     0.25   0.08   0.00     0.25   0.08  -0.01     0.17   0.01  -0.05
  21   1     0.04   0.00  -0.04     0.09  -0.04  -0.03     0.31  -0.22  -0.01
  22   1    -0.14   0.08   0.01    -0.05   0.02   0.00     0.31  -0.20  -0.01
  23   1     0.00  -0.00  -0.01     0.03  -0.02   0.00     0.04  -0.02   0.03
  24   1    -0.02   0.01   0.01     0.01  -0.02   0.00     0.04  -0.06  -0.01
  25   1     0.07  -0.05  -0.00    -0.01   0.01  -0.00    -0.31   0.24  -0.01
  26   1     0.04  -0.03   0.00    -0.04   0.03  -0.00    -0.31   0.23  -0.02
  27   1     0.01  -0.03   0.01    -0.00   0.01  -0.00    -0.03   0.14  -0.07
  28   1     0.00  -0.01   0.01     0.00  -0.00  -0.00    -0.00   0.02  -0.06
  29   1    -0.00  -0.01  -0.00     0.00   0.01   0.00     0.03   0.06   0.01
                     58                     59                     60
                        a                      a                      a 
 Frequencies --  1377.0723              1380.4326              1415.8791
 Red. masses --    99.0000                99.0000                99.0000
 Frc consts  --    99.0000                99.0000                99.0000
 IR Inten    --    99.0000                99.0000                99.0000
 Raman Activ --     0.0000                 0.0000                 0.0000
 Depolar     --     0.0000                 0.0000                 0.0000
 Atom AN      X      Y      Z        X      Y      Z        X      Y      Z
   1   6     0.01  -0.00   0.00     0.01  -0.00  -0.00    -0.02   0.41  -0.13
   2   6    -0.05  -0.00   0.00    -0.04   0.01   0.00    -0.04  -0.10  -0.01
   3   6     0.24   0.08   0.02     0.20   0.08   0.00    -0.04   0.03  -0.00
   4   6    -0.30  -0.08  -0.01    -0.26  -0.08   0.01    -0.01   0.01   0.01
   5   6     0.22   0.10  -0.02     0.23  -0.00  -0.00     0.01  -0.01   0.00
   6   6     0.17  -0.17  -0.02    -0.25   0.11   0.00     0.00  -0.00  -0.00
   7   6    -0.23   0.16  -0.01     0.26  -0.19  -0.00    -0.00  -0.00   0.00
   8   6     0.15  -0.12   0.02    -0.16   0.15  -0.01    -0.00   0.00   0.00
   9   6    -0.03   0.01   0.01     0.04  -0.01  -0.01     0.01  -0.02   0.01
  10   1    -0.01  -0.01   0.00    -0.01  -0.02   0.00     0.02  -0.52  -0.02
  11   1     0.00  -0.00   0.01     0.00  -0.00   0.01    -0.13  -0.42   0.24
  12   1    -0.02   0.02   0.01    -0.02   0.01   0.02     0.20  -0.38   0.24
  13   1    -0.03  -0.05  -0.01    -0.03  -0.05  -0.01     0.06   0.09   0.06
  14   1     0.03   0.03   0.00     0.02   0.01   0.00     0.08   0.07   0.01
  15   1    -0.19  -0.05  -0.02    -0.21  -0.05  -0.02     0.05   0.02  -0.02
  16   1    -0.21  -0.07  -0.00    -0.15  -0.07  -0.01     0.03  -0.03  -0.01
  17   1     0.27   0.07  -0.00     0.20   0.07   0.00    -0.00  -0.03  -0.00
  18   1     0.22   0.07  -0.00     0.29   0.08   0.00     0.05   0.01  -0.03
  19   1    -0.18  -0.05  -0.00    -0.20  -0.02   0.01    -0.00   0.01   0.00
  20   1    -0.27  -0.07   0.03    -0.11  -0.05   0.01    -0.02  -0.01   0.00
  21   1    -0.23   0.15   0.03     0.13  -0.11  -0.01    -0.00   0.00   0.00
  22   1    -0.15   0.11  -0.00     0.21  -0.10  -0.00    -0.00  -0.00   0.00
  23   1     0.17  -0.12   0.00    -0.28   0.19  -0.01    -0.00   0.00   0.00
  24   1     0.22  -0.14   0.00    -0.20   0.16  -0.01     0.00  -0.00   0.00
  25   1    -0.13   0.11   0.00     0.12  -0.11   0.00     0.01  -0.00   0.00
  26   1    -0.11   0.08  -0.02     0.16  -0.11   0.01     0.00  -0.00  -0.00
  27   1    -0.01   0.03  -0.01     0.01  -0.03   0.01    -0.00   0.03  -0.02
  28   1     0.01   0.00  -0.02    -0.01   0.00   0.03    -0.02   0.02  -0.02
  29   1     0.02   0.01   0.00    -0.02  -0.02  -0.00    -0.02   0.03   0.00
                     61                     62                     63
                        a                      a                      a 
 Frequencies --  1416.5570              2962.2732              2955.9291
 Red. masses --    99.0000                99.0000                99.0000
 Frc consts  --    99.0000                99.0000                99.0000
 IR Inten    --    99.0000                99.0000                99.0000
 Raman Activ --     0.0000                 0.0000                 0.0000
 Depolar     --     0.0000                 0.0000                 0.0000
 Atom AN      X      Y      Z        X      Y      Z        X      Y      Z
   1   6    -0.00   0.03  -0.01    -0.02   0.00   0.01    -0.00   0.00   0.00
   2   6    -0.00  -0.01  -0.00     0.17  -0.06  -0.20     0.01  -0.00  -0.01
   3   6    -0.00   0.00  -0.00    -0.01   0.04   0.05     0.00  -0.01   0.01
   4   6    -0.00   0.00   0.00    -0.00  -0.00   0.05     0.01  -0.02   0.05
   5   6     0.01  -0.00   0.00     0.01  -0.03   0.01    -0.03   0.12  -0.16
   6   6    -0.03   0.01   0.01    -0.00  -0.00  -0.02     0.06   0.09   0.15
   7   6     0.01   0.01  -0.01     0.00   0.00   0.00    -0.02  -0.04  -0.06
   8   6     0.07  -0.04  -0.00     0.00   0.00   0.01     0.01   0.01   0.02
   9   6    -0.20   0.36  -0.13     0.00  -0.00  -0.00    -0.00  -0.00   0.00
  10   1     0.00  -0.04  -0.00    -0.00   0.00  -0.06    -0.00   0.00  -0.00
  11   1    -0.01  -0.03   0.02     0.06  -0.03  -0.02     0.00  -0.00  -0.00
  12   1     0.01  -0.03   0.02     0.01   0.01   0.01    -0.00  -0.00  -0.00
  13   1     0.00   0.01   0.00    -0.63   0.24   0.18    -0.03   0.01   0.01
  14   1     0.01   0.00   0.00    -0.00  -0.01   0.54    -0.00  -0.00   0.04
  15   1     0.01   0.00  -0.00     0.04  -0.17   0.06    -0.01   0.05  -0.01
  16   1     0.00  -0.00  -0.00    -0.00   0.02  -0.24    -0.00   0.00  -0.03
  17   1    -0.00  -0.00   0.00    -0.00   0.01  -0.16    -0.00   0.00  -0.17
  18   1     0.00   0.00  -0.00    -0.00   0.01   0.00    -0.02   0.07  -0.02
  19   1    -0.00  -0.00   0.00     0.00  -0.00   0.02     0.00  -0.00   0.48
  20   1     0.00  -0.00  -0.00    -0.03   0.11  -0.03     0.13  -0.41   0.11
  21   1     0.03  -0.02  -0.00     0.00   0.00  -0.00    -0.23  -0.30  -0.09
  22   1     0.03  -0.02   0.00     0.00   0.00   0.06    -0.01  -0.01  -0.47
  23   1    -0.01   0.01  -0.01    -0.00  -0.01  -0.00     0.09   0.13   0.04
  24   1    -0.01   0.01  -0.00    -0.00   0.00   0.00    -0.00  -0.00   0.21
  25   1    -0.09   0.01   0.00     0.00   0.00  -0.02     0.00   0.00  -0.06
  26   1    -0.07   0.03   0.04    -0.01  -0.01  -0.00    -0.03  -0.04  -0.01
  27   1     0.02  -0.44   0.25    -0.00   0.00   0.00     0.00  -0.00  -0.00
  28   1     0.34  -0.31   0.22     0.00   0.00   0.00     0.00   0.00   0.00
  29   1     0.25  -0.45  -0.02     0.00  -0.00   0.00     0.00  -0.00   0.00
                     64                     65                     66
                        a                      a                      a 
 Frequencies --  2955.1731              2957.0909              2960.8065
 Red. masses --    99.0000                99.0000                99.0000
 Frc consts  --    99.0000                99.0000                99.0000
 IR Inten    --    99.0000                99.0000                99.0000
 Raman Activ --     0.0000                 0.0000                 0.0000
 Depolar     --     0.0000                 0.0000                 0.0000
 Atom AN      X      Y      Z        X      Y      Z        X      Y      Z
   1   6     0.00   0.00   0.00     0.00  -0.00   0.00     0.00   0.00  -0.00
   2   6     0.00  -0.00   0.00     0.01   0.00   0.04    -0.00   0.00   0.00
   3   6    -0.01   0.03  -0.04    -0.04   0.18  -0.18     0.00  -0.01  -0.00
   4   6     0.01  -0.03   0.09     0.01  -0.02   0.07     0.00   0.00   0.02
   5   6    -0.04   0.13  -0.11     0.02  -0.05   0.03    -0.01   0.03   0.01
   6   6    -0.08  -0.10  -0.10     0.02   0.03   0.02    -0.05  -0.07  -0.07
   7   6     0.02   0.04   0.10    -0.01  -0.01  -0.03    -0.02  -0.04  -0.12
   8   6    -0.01  -0.01  -0.04     0.00   0.00   0.01     0.08   0.11   0.19
   9   6     0.00   0.00   0.00    -0.00  -0.00  -0.00    -0.01  -0.01  -0.01
  10   1    -0.00  -0.00  -0.00    -0.00  -0.00  -0.01     0.00   0.00   0.00
  11   1     0.00  -0.00  -0.00    -0.01   0.00   0.00    -0.00   0.00   0.00
  12   1    -0.00  -0.00  -0.00    -0.00  -0.00  -0.00    -0.00  -0.00  -0.00
  13   1    -0.01   0.01   0.01    -0.04   0.02   0.02     0.02  -0.01  -0.01
  14   1     0.00  -0.00  -0.02     0.01  -0.00  -0.18    -0.00   0.00   0.00
  15   1     0.03  -0.10   0.02     0.16  -0.63   0.16    -0.01   0.04  -0.01
  16   1    -0.00  -0.00   0.14    -0.01  -0.01   0.52     0.00  -0.00   0.02
  17   1     0.00   0.00  -0.33     0.00   0.00  -0.26     0.00   0.00  -0.08
  18   1    -0.03   0.11  -0.02    -0.03   0.10  -0.02    -0.00   0.00   0.00
  19   1     0.00   0.01   0.26     0.00  -0.00  -0.04    -0.00   0.01  -0.08
  20   1     0.15  -0.47   0.14    -0.06   0.19  -0.06     0.04  -0.12   0.04
  21   1     0.28   0.37   0.12    -0.09  -0.12  -0.04     0.19   0.25   0.08
  22   1    -0.00  -0.01   0.23     0.00   0.00  -0.05    -0.00  -0.00   0.15
  23   1    -0.10  -0.14  -0.04     0.03   0.04   0.01     0.10   0.14   0.04
  24   1     0.01  -0.00  -0.31    -0.00   0.00   0.10    -0.01   0.01   0.40
  25   1    -0.00  -0.00   0.12     0.00   0.00  -0.04     0.02   0.01  -0.53
  26   1     0.04   0.06   0.02    -0.01  -0.02  -0.01    -0.30  -0.42  -0.16
  27   1     0.00   0.00   0.00    -0.00  -0.00  -0.00     0.00  -0.00  -0.00
  28   1    -0.00  -0.01  -0.00     0.00   0.00   0.00     0.03   0.05   0.02
  29   1    -0.00   0.00  -0.01     0.00  -0.00   0.00    -0.00  -0.00   0.05
                     67                     68                     69
                        a                      a                      a 
 Frequencies --  3007.6809              2968.9421              3028.9125
 Red. masses --    99.0000                99.0000                99.0000
 Frc consts  --    99.0000                99.0000                99.0000
 IR Inten    --    99.0000                99.0000                99.0000
 Raman Activ --     0.0000                 0.0000                 0.0000
 Depolar     --     0.0000                 0.0000                 0.0000
 Atom AN      X      Y      Z        X      Y      Z        X      Y      Z
   1   6    -0.03   0.01   0.00     0.00   0.00  -0.00     0.00  -0.00  -0.01
   2   6     0.00  -0.00  -0.00    -0.05   0.02  -0.02     0.00   0.00  -0.00
   3   6     0.01  -0.04   0.01     0.02  -0.10   0.02    -0.00   0.00   0.00
   4   6     0.06  -0.22   0.04     0.00  -0.02   0.19    -0.00   0.00   0.00
   5   6     0.01  -0.04   0.01     0.02  -0.07   0.01    -0.00   0.00   0.00
   6   6    -0.01  -0.02  -0.00     0.03   0.04  -0.05     0.00   0.00   0.00
   7   6    -0.03  -0.04  -0.01    -0.00  -0.00  -0.01     0.01   0.01   0.01
   8   6    -0.01  -0.01  -0.00    -0.01  -0.02  -0.00     0.02   0.03   0.03
   9   6     0.01   0.01   0.00     0.00   0.00   0.00     0.12   0.15   0.21
  10   1    -0.00   0.00   0.01     0.00   0.00   0.01     0.00  -0.00   0.03
  11   1     0.08  -0.04  -0.04    -0.01   0.01   0.00    -0.01   0.01   0.00
  12   1     0.02   0.02   0.01    -0.01  -0.01  -0.01    -0.00  -0.00  -0.00
  13   1    -0.02   0.01   0.01     0.19  -0.07  -0.07     0.00  -0.00  -0.00
  14   1     0.00  -0.00   0.00    -0.02   0.00   0.13    -0.00   0.00   0.00
  15   1    -0.03   0.11  -0.04    -0.09   0.37  -0.11     0.00  -0.00   0.00
  16   1     0.00  -0.00   0.00     0.00  -0.02   0.06     0.00   0.00  -0.00
  17   1     0.01  -0.03   0.14    -0.00   0.02  -0.71    -0.00   0.00  -0.01
  18   1    -0.24   0.83  -0.28    -0.00   0.01   0.02     0.00  -0.02   0.01
  19   1     0.00  -0.00   0.00     0.01  -0.01   0.05    -0.00   0.00  -0.01
  20   1    -0.04   0.12  -0.04    -0.08   0.27  -0.09     0.00  -0.00   0.00
  21   1     0.04   0.05   0.02    -0.11  -0.15  -0.06    -0.01  -0.01  -0.00
  22   1    -0.00  -0.00   0.00     0.02   0.02   0.24    -0.00   0.00  -0.01
  23   1     0.11   0.16   0.06     0.01   0.01   0.00    -0.03  -0.04  -0.02
  24   1    -0.00  -0.01  -0.04    -0.00   0.00   0.04     0.00   0.00  -0.02
  25   1    -0.00  -0.00  -0.00    -0.00  -0.00  -0.02     0.00  -0.00  -0.07
  26   1     0.02   0.03   0.01     0.04   0.06   0.02    -0.06  -0.08  -0.03
  27   1    -0.02   0.00   0.01    -0.00   0.00   0.00    -0.04   0.03   0.05
  28   1    -0.02  -0.04  -0.02    -0.00  -0.00  -0.00    -0.41  -0.59  -0.23
  29   1     0.00   0.00   0.01     0.00   0.00  -0.00     0.02   0.02  -0.57
                     70                     71                     72
                        a                      a                      a 
 Frequencies --  2971.4139              3030.8366              2974.1936
 Red. masses --    99.0000                99.0000                99.0000
 Frc consts  --    99.0000                99.0000                99.0000
 IR Inten    --    99.0000                99.0000                99.0000
 Raman Activ --     0.0000                 0.0000                 0.0000
 Depolar     --     0.0000                 0.0000                 0.0000
 Atom AN      X      Y      Z        X      Y      Z        X      Y      Z
   1   6    -0.00   0.00   0.00     0.10   0.06   0.25    -0.01   0.00   0.01
   2   6     0.02  -0.01  -0.03     0.01  -0.00   0.04     0.05  -0.02  -0.03
   3   6     0.01  -0.03  -0.03     0.00  -0.00   0.01     0.01  -0.04  -0.07
   4   6     0.00  -0.00   0.03     0.00  -0.00   0.01     0.00  -0.00  -0.02
   5   6    -0.01   0.04   0.09     0.00  -0.00   0.00    -0.03   0.10   0.07
   6   6    -0.04  -0.05   0.03     0.00   0.00   0.00     0.06   0.09  -0.04
   7   6    -0.01  -0.02  -0.16     0.00   0.00   0.00    -0.01  -0.01   0.04
   8   6    -0.05  -0.07  -0.12     0.00   0.00  -0.00    -0.01  -0.02   0.05
   9   6     0.00   0.01   0.02     0.04   0.02  -0.03     0.00  -0.00  -0.01
  10   1    -0.00   0.00  -0.01    -0.00   0.01  -0.82    -0.00  -0.00  -0.01
  11   1     0.01  -0.00  -0.00     0.01   0.01   0.04     0.02  -0.01  -0.01
  12   1    -0.00   0.00   0.00    -0.35  -0.24  -0.11     0.00   0.00   0.00
  13   1    -0.05   0.02   0.01    -0.02   0.01   0.01    -0.19   0.07   0.06
  14   1    -0.00  -0.00   0.09     0.01  -0.00  -0.11     0.01  -0.00   0.02
  15   1    -0.03   0.12  -0.04    -0.00   0.02  -0.00    -0.04   0.18  -0.06
  16   1     0.00  -0.01   0.16    -0.00   0.00  -0.05     0.00  -0.03   0.33
  17   1     0.00   0.00  -0.11     0.00   0.00  -0.02     0.00  -0.00   0.10
  18   1    -0.00   0.01   0.00    -0.01   0.02  -0.00    -0.00   0.02  -0.01
  19   1    -0.01   0.03  -0.40    -0.00   0.00  -0.01    -0.01   0.03  -0.40
  20   1     0.06  -0.18   0.07    -0.00   0.00  -0.00     0.12  -0.39   0.14
  21   1     0.15   0.20   0.08    -0.00  -0.00  -0.00    -0.26  -0.35  -0.14
  22   1    -0.01  -0.02  -0.20     0.00  -0.00  -0.00     0.02   0.03   0.31
  23   1     0.02   0.02  -0.01    -0.00  -0.01  -0.00     0.03   0.05   0.03
  24   1    -0.00   0.02   0.58    -0.00   0.00   0.00    -0.00  -0.01  -0.19
  25   1    -0.01  -0.01   0.31     0.00   0.00   0.01    -0.00  -0.00  -0.21
  26   1     0.19   0.27   0.10    -0.01  -0.01  -0.01     0.04   0.06   0.03
  27   1     0.01   0.00   0.00    -0.12   0.01   0.04    -0.01   0.00   0.00
  28   1    -0.03  -0.04  -0.01    -0.05  -0.07  -0.04    -0.00  -0.00  -0.00
  29   1     0.00   0.00  -0.07     0.01   0.00   0.10     0.00  -0.00   0.03
                     73                     74                     75
                        a                      a                      a 
 Frequencies --  2980.2810              2989.9814              3034.2784
 Red. masses --    99.0000                99.0000                99.0000
 Frc consts  --    99.0000                99.0000                99.0000
 IR Inten    --    99.0000                99.0000                99.0000
 Raman Activ --     0.0000                 0.0000                 0.0000
 Depolar     --     0.0000                 0.0000                 0.0000
 Atom AN      X      Y      Z        X      Y      Z        X      Y      Z
   1   6     0.02   0.01   0.02    -0.00   0.00   0.00    -0.23  -0.08   0.07
   2   6    -0.12   0.05  -0.13     0.00  -0.00  -0.01    -0.02   0.00   0.01
   3   6    -0.02   0.06  -0.01     0.00  -0.01  -0.01    -0.00   0.00   0.00
   4   6     0.01  -0.02  -0.00     0.01  -0.05  -0.01    -0.00   0.01  -0.00
   5   6    -0.01   0.03   0.04    -0.00   0.01  -0.03    -0.00   0.00   0.00
   6   6     0.01   0.01   0.03     0.03   0.05  -0.03     0.00   0.00   0.00
   7   6     0.00   0.01   0.03     0.11   0.15  -0.02     0.00   0.00   0.00
   8   6     0.00   0.00   0.02     0.05   0.06  -0.03     0.00   0.00  -0.00
   9   6    -0.00  -0.00  -0.00    -0.03  -0.02   0.01     0.01   0.01  -0.01
  10   1     0.00   0.00  -0.07    -0.00   0.00  -0.01    -0.04  -0.01  -0.43
  11   1    -0.03   0.02   0.02     0.01  -0.00  -0.00     0.24  -0.14  -0.11
  12   1    -0.05  -0.03  -0.02    -0.01  -0.00  -0.00     0.61   0.44   0.27
  13   1     0.50  -0.19  -0.19     0.00  -0.00  -0.00     0.07  -0.03  -0.02
  14   1    -0.06   0.01   0.66    -0.00  -0.00   0.04    -0.00  -0.00  -0.02
  15   1     0.06  -0.25   0.08    -0.01   0.03  -0.01     0.00  -0.01   0.00
  16   1    -0.00   0.01  -0.06     0.00  -0.00   0.06    -0.00   0.00  -0.01
  17   1    -0.00  -0.00   0.04     0.00  -0.01   0.11    -0.00   0.00  -0.02
  18   1    -0.02   0.07  -0.03    -0.05   0.18  -0.07     0.01  -0.05   0.02
  19   1    -0.01   0.01  -0.21     0.00  -0.00   0.08    -0.00   0.00  -0.00
  20   1     0.04  -0.12   0.05     0.01  -0.03   0.01     0.00  -0.01   0.00
  21   1    -0.03  -0.04  -0.01    -0.13  -0.17  -0.07    -0.00  -0.01  -0.00
  22   1    -0.00  -0.00  -0.08     0.01   0.02   0.18     0.00   0.00   0.00
  23   1    -0.01  -0.02  -0.00    -0.40  -0.58  -0.25    -0.01  -0.01  -0.00
  24   1     0.00  -0.00  -0.11     0.01   0.03   0.32     0.00   0.00   0.00
  25   1     0.00  -0.00  -0.06     0.00   0.01   0.20     0.00   0.00   0.00
  26   1    -0.01  -0.02  -0.00    -0.16  -0.23  -0.11    -0.00  -0.01  -0.00
  27   1    -0.00  -0.00  -0.00     0.06  -0.01  -0.02    -0.00   0.00  -0.00
  28   1     0.00   0.00   0.00     0.05   0.07   0.03    -0.03  -0.04  -0.02
  29   1    -0.00  -0.00   0.02    -0.00  -0.00  -0.05     0.00   0.00   0.04
                     76                     77                     78
                        a                      a                      a 
 Frequencies --  2980.8490              2976.4250              2984.7740
 Red. masses --    99.0000                99.0000                99.0000
 Frc consts  --    99.0000                99.0000                99.0000
 IR Inten    --    99.0000                99.0000                99.0000
 Raman Activ --     0.0000                 0.0000                 0.0000
 Depolar     --     0.0000                 0.0000                 0.0000
 Atom AN      X      Y      Z        X      Y      Z        X      Y      Z
   1   6     0.00  -0.00  -0.01     0.00  -0.00  -0.01    -0.01  -0.01  -0.02
   2   6    -0.02   0.01   0.04    -0.03   0.01   0.05     0.01  -0.00   0.08
   3   6    -0.01   0.04   0.08    -0.02   0.06   0.08    -0.01   0.01   0.11
   4   6    -0.00  -0.00   0.04     0.00  -0.01  -0.01     0.01  -0.04   0.11
   5   6    -0.01   0.04   0.03    -0.01   0.02  -0.05    -0.00   0.02   0.12
   6   6     0.02   0.03  -0.06     0.01   0.02  -0.10     0.01   0.01   0.10
   7   6    -0.05  -0.07  -0.05     0.00   0.00  -0.08     0.04   0.07   0.08
   8   6     0.05   0.07  -0.11    -0.07  -0.10   0.03     0.01   0.01   0.06
   9   6    -0.01   0.00   0.01     0.01   0.01   0.00    -0.00  -0.01  -0.01
  10   1     0.00  -0.00   0.03     0.00  -0.00   0.03     0.00  -0.00   0.07
  11   1    -0.01   0.00   0.00    -0.01   0.01   0.00    -0.00  -0.00  -0.00
  12   1     0.01   0.00   0.00     0.00   0.00  -0.00     0.02   0.01   0.01
  13   1     0.05  -0.02  -0.01     0.10  -0.04  -0.02    -0.03   0.01   0.02
  14   1     0.01   0.00  -0.14     0.00   0.00  -0.13     0.02   0.00  -0.30
  15   1     0.04  -0.18   0.06     0.07  -0.26   0.09     0.02  -0.08   0.04
  16   1    -0.00   0.03  -0.34    -0.00   0.04  -0.39     0.00   0.03  -0.41
  17   1    -0.00   0.00  -0.11     0.00  -0.00   0.05    -0.00   0.01  -0.34
  18   1    -0.01   0.02  -0.00    -0.01   0.05  -0.02    -0.04   0.13  -0.03
  19   1    -0.01   0.01  -0.17     0.00  -0.00   0.15    -0.01   0.02  -0.45
  20   1     0.05  -0.16   0.05     0.03  -0.08   0.02     0.03  -0.09   0.05
  21   1    -0.10  -0.14  -0.06    -0.07  -0.09  -0.05    -0.02  -0.03   0.00
  22   1     0.02   0.02   0.29     0.02   0.02   0.41    -0.01  -0.02  -0.36
  23   1     0.20   0.29   0.11    -0.02  -0.02  -0.02    -0.17  -0.24  -0.09
  24   1    -0.01  -0.01   0.04    -0.00   0.01   0.32     0.01   0.00  -0.18
  25   1     0.00   0.02   0.55    -0.01  -0.02  -0.29     0.00  -0.00  -0.21
  26   1    -0.20  -0.28  -0.14     0.28   0.40   0.18    -0.02  -0.02  -0.00
  27   1     0.04  -0.00  -0.01    -0.02   0.00   0.01    -0.01  -0.00   0.00
  28   1     0.00   0.01   0.00    -0.02  -0.04  -0.02     0.02   0.02   0.01
  29   1    -0.00   0.00  -0.05     0.00   0.00  -0.00    -0.00  -0.00   0.05
                     79                     80                     81
                        a                      a                      a 
 Frequencies --  3031.7876              3046.7352              3037.5178
 Red. masses --    99.0000                99.0000                99.0000
 Frc consts  --    99.0000                99.0000                99.0000
 IR Inten    --    99.0000                99.0000                99.0000
 Raman Activ --     0.0000                 0.0000                 0.0000
 Depolar     --     0.0000                 0.0000                 0.0000
 Atom AN      X      Y      Z        X      Y      Z        X      Y      Z
   1   6     0.01   0.01   0.05    -0.14   0.14   0.07     0.01   0.00  -0.00
   2   6     0.00  -0.00   0.01    -0.02   0.01   0.01     0.00  -0.00  -0.00
   3   6     0.00  -0.00   0.00    -0.00   0.01  -0.00     0.00  -0.00  -0.00
   4   6     0.00  -0.00   0.00    -0.01   0.02  -0.00     0.00  -0.00   0.00
   5   6     0.00  -0.00   0.00    -0.00   0.00  -0.00     0.00  -0.00  -0.00
   6   6    -0.00  -0.00   0.00     0.00   0.00   0.00    -0.00  -0.00   0.00
   7   6    -0.01  -0.01   0.01     0.00   0.00   0.00     0.00   0.00  -0.00
   8   6    -0.02  -0.02   0.02     0.00   0.00   0.00    -0.00   0.00  -0.00
   9   6    -0.21  -0.06   0.18     0.00   0.00  -0.00    -0.12   0.10  -0.02
  10   1    -0.00   0.00  -0.18    -0.02   0.01   0.17     0.00   0.00   0.02
  11   1     0.02  -0.01  -0.00     0.77  -0.36  -0.32    -0.01   0.01   0.01
  12   1    -0.04  -0.03  -0.01    -0.25  -0.14  -0.08    -0.03  -0.02  -0.01
  13   1    -0.00   0.00   0.00     0.06  -0.02  -0.02    -0.01   0.00   0.00
  14   1     0.00  -0.00  -0.02    -0.00   0.00  -0.01     0.00  -0.00  -0.00
  15   1    -0.00   0.01  -0.00     0.00  -0.02   0.01    -0.00   0.00  -0.00
  16   1    -0.00   0.00  -0.01    -0.00   0.00  -0.00     0.00  -0.00   0.00
  17   1     0.00  -0.00  -0.01    -0.00   0.00  -0.01     0.00  -0.00  -0.00
  18   1    -0.01   0.02  -0.01     0.02  -0.07   0.02    -0.00   0.00  -0.00
  19   1     0.00  -0.00  -0.01    -0.00   0.00   0.00     0.00  -0.00   0.00
  20   1    -0.00   0.01  -0.00     0.00  -0.01   0.00    -0.00   0.00  -0.00
  21   1     0.01   0.01   0.00    -0.00  -0.00  -0.00     0.00   0.00   0.00
  22   1    -0.00  -0.00  -0.02     0.00   0.00  -0.00     0.00  -0.00  -0.00
  23   1     0.03   0.05   0.02    -0.01  -0.01  -0.00    -0.01  -0.01  -0.00
  24   1     0.00  -0.00  -0.05     0.00   0.00   0.00     0.00   0.00   0.01
  25   1    -0.00  -0.00  -0.09     0.00   0.00   0.00    -0.00   0.00   0.01
  26   1     0.04   0.05   0.03    -0.00  -0.00  -0.00    -0.00   0.00  -0.00
  27   1     0.57  -0.06  -0.19    -0.00   0.00   0.00     0.69  -0.05  -0.25
  28   1     0.18   0.30   0.16    -0.00  -0.01  -0.00    -0.25  -0.33  -0.14
  29   1    -0.03  -0.01  -0.59     0.00   0.00   0.00    -0.02   0.01   0.49
