      -----------------------------------------------------------      
     |                   =====================                   |     
     |                           x T B                           |     
     |                   =====================                   |     
     |                         S. Grimme                         |     
     |          Mulliken Center for Theoretical Chemistry        |     
     |                    University of Bonn                     |     
      -----------------------------------------------------------      

   * xtb version 6.6.1 (8d0f1dd) compiled by 'stahn@M-Bot' on 2023-08-01

   xtb is free software: you can redistribute it and/or modify it under
   the terms of the GNU Lesser General Public License as published by
   the Free Software Foundation, either version 3 of the License, or
   (at your option) any later version.
   
   xtb is distributed in the hope that it will be useful,
   but WITHOUT ANY WARRANTY; without even the implied warranty of
   MERCHANTABILITY or FITNESS FOR A PARTICULAR PURPOSE.  See the
   GNU Lesser General Public License for more details.
   
   Cite this work as:
   * C. Bannwarth, E. Caldeweyher, S. Ehlert, A. Hansen, P. Pracht,
     J. Seibert, S. Spicher, S. Grimme, WIREs Comput. Mol. Sci., 2020, 11,
     e01493. DOI: 10.1002/wcms.1493
   
   for GFN2-xTB:
   * C. Bannwarth, S. Ehlert and S. Grimme., J. Chem. Theory Comput., 2019,
     15, 1652-1671. DOI: 10.1021/acs.jctc.8b01176
   for GFN1-xTB:
   * S. Grimme, C. Bannwarth, P. Shushkov, J. Chem. Theory Comput., 2017,
     13, 1989-2009. DOI: 10.1021/acs.jctc.7b00118
   for GFN0-xTB:
   * P. Pracht, E. Caldeweyher, S. Ehlert, S. Grimme, ChemRxiv, 2019, preprint.
     DOI: 10.26434/chemrxiv.8326202.v1
   for GFN-FF:
   * S. Spicher and S. Grimme, Angew. Chem. Int. Ed., 2020, 59, 15665-15673.
     DOI: 10.1002/anie.202004239
   
   for ALPB and GBSA implicit solvation:
   * S. Ehlert, M. Stahn, S. Spicher, S. Grimme, J. Chem. Theory Comput.,
     2021, 17, 4250-4261. DOI: 10.1021/acs.jctc.1c00471
   
   for DFT-D4:
   * E. Caldeweyher, C. Bannwarth and S. Grimme, J. Chem. Phys., 2017,
     147, 034112. DOI: 10.1063/1.4993215
   * E. Caldeweyher, S. Ehlert, A. Hansen, H. Neugebauer, S. Spicher,
     C. Bannwarth and S. Grimme, J. Chem. Phys., 2019, 150, 154122.
     DOI: 10.1063/1.5090222
   * E. Caldeweyher, J.-M. Mewes, S. Ehlert and S. Grimme, Phys. Chem. Chem. Phys.
     2020, 22, 8499-8512. DOI: 10.1039/D0CP00502A
   
   for sTDA-xTB:
   * S. Grimme and C. Bannwarth, J. Chem. Phys., 2016, 145, 054103.
     DOI: 10.1063/1.4959605
   
   in the mass-spec context:
   * V. Asgeirsson, C. Bauer and S. Grimme, Chem. Sci., 2017, 8, 4879.
     DOI: 10.1039/c7sc00601b
   * J. Koopman and S. Grimme, ACS Omega 2019, 4, 12, 15120-15133.
     DOI: 10.1021/acsomega.9b02011
   
   for metadynamics refer to:
   * S. Grimme, J. Chem. Theory Comput., 2019, 155, 2847-2862
     DOI: 10.1021/acs.jctc.9b00143
   
   for SPH calculations refer to:
   * S. Spicher and S. Grimme, J. Chem. Theory Comput., 2021, 17, 1701-1714
     DOI: 10.1021/acs.jctc.0c01306
   
   with help from (in alphabetical order)
   P. Atkinson, C. Bannwarth, F. Bohle, G. Brandenburg, E. Caldeweyher
   M. Checinski, S. Dohm, S. Ehlert, S. Ehrlich, I. Gerasimov, C. Hölzer
   A. Katbashev, J. Koopman, C. Lavigne, S. Lehtola, F. März, M. Müller,
   F. Musil, H. Neugebauer, J. Pisarek, C. Plett, P. Pracht, F. Pultar,
   J. Seibert, P. Shushkov, S. Spicher, M. Stahn, M. Steiner, T. Strunk,
   J. Stückrath, T. Rose, and J. Unsleber
   
 * started run on 2024/04/23 at 12:10:22.212     

           -------------------------------------------------
          |                Calculation Setup                |
           -------------------------------------------------

          program call               : xtb folded.xyz --gfn 2 --ohess -P 4
          coordinate file            : folded.xyz
          omp threads                :                     4

   ID    Z sym.   atoms
    1    6 C      1-9
    2    1 H      10-29

           -------------------------------------------------
          |                 G F N 2 - x T B                 |
           -------------------------------------------------

        Reference                      10.1021/acs.jctc.8b01176
      * Hamiltonian:
        H0-scaling (s, p, d)           1.850000    2.230000    2.230000
        zeta-weighting                 0.500000
      * Dispersion:
        s8                             2.700000
        a1                             0.520000
        a2                             5.000000
        s9                             5.000000
      * Repulsion:
        kExp                           1.500000    1.000000
        rExp                           1.000000
      * Coulomb:
        alpha                          2.000000
        third order                    shell-resolved
        anisotropic                    true
        a3                             3.000000
        a5                             4.000000
        cn-shift                       1.200000
        cn-exp                         4.000000
        max-rad                        5.000000


          ...................................................
          :                      SETUP                      :
          :.................................................:
          :  # basis functions                  56          :
          :  # atomic orbitals                  56          :
          :  # shells                           38          :
          :  # electrons                        56          :
          :  max. iterations                   250          :
          :  Hamiltonian                  GFN2-xTB          :
          :  restarted?                      false          :
          :  GBSA solvation                  false          :
          :  PC potential                    false          :
          :  electronic temp.          300.0000000     K    :
          :  accuracy                    1.0000000          :
          :  -> integral cutoff          0.2500000E+02      :
          :  -> integral neglect         0.1000000E-07      :
          :  -> SCF convergence          0.1000000E-05 Eh   :
          :  -> wf. convergence          0.1000000E-03 e    :
          :  Broyden damping             0.4000000          :
          ...................................................

 iter      E             dE          RMSdq      gap      omega  full diag
   1    -29.8348790 -0.298349E+02  0.251E+00   12.73       0.0  T
   2    -29.9130246 -0.781456E-01  0.134E+00   12.51       1.0  T
   3    -29.9139395 -0.914848E-03  0.715E-01   12.49       1.0  T
   4    -29.9141637 -0.224231E-03  0.866E-02   12.51       1.0  T
   5    -29.9141713 -0.759232E-05  0.447E-02   12.51       1.0  T
   6    -29.9141734 -0.203852E-05  0.332E-03   12.51       5.6  T
   7    -29.9141734 -0.560237E-07  0.138E-03   12.51      13.4  T
   8    -29.9141734 -0.764542E-08  0.284E-04   12.51      65.4  T
   9    -29.9141734 -0.185057E-09  0.118E-04   12.51     156.9  T

   *** convergence criteria satisfied after 9 iterations ***

         #    Occupation            Energy/Eh            Energy/eV
      -------------------------------------------------------------
         1        2.0000           -0.6214202             -16.9097
       ...           ...                  ...                  ...
        22        2.0000           -0.4354466             -11.8491
        23        2.0000           -0.4275212             -11.6334
        24        2.0000           -0.4270897             -11.6217
        25        2.0000           -0.4227329             -11.5031
        26        2.0000           -0.4176079             -11.3637
        27        2.0000           -0.4142108             -11.2712
        28        2.0000           -0.4091947             -11.1348 (HOMO)
        29                          0.0504986               1.3741 (LUMO)
        30                          0.0704607               1.9173
        31                          0.0966896               2.6311
        32                          0.1062894               2.8923
        33                          0.1116477               3.0381
       ...                                ...                  ...
        56                          0.3153014               8.5798
      -------------------------------------------------------------
                  HL-Gap            0.4596934 Eh           12.5089 eV
             Fermi-level           -0.1793481 Eh           -4.8803 eV

 SCC (total)                   0 d,  0 h,  0 min,  0.016 sec
 SCC setup                      ...        0 min,  0.001 sec (  7.741%)
 Dispersion                     ...        0 min,  0.000 sec (  1.525%)
 classical contributions        ...        0 min,  0.000 sec (  0.194%)
 integral evaluation            ...        0 min,  0.001 sec (  6.676%)
 iterations                     ...        0 min,  0.008 sec ( 50.529%)
 molecular gradient             ...        0 min,  0.004 sec ( 25.432%)
 printout                       ...        0 min,  0.001 sec (  7.651%)

         :::::::::::::::::::::::::::::::::::::::::::::::::::::
         ::                     SUMMARY                     ::
         :::::::::::::::::::::::::::::::::::::::::::::::::::::
         :: total energy             -29.483227302330 Eh    ::
         :: gradient norm              0.027639471650 Eh/a0 ::
         :: HOMO-LUMO gap             12.508893774613 eV    ::
         ::.................................................::
         :: SCC energy               -29.914173420031 Eh    ::
         :: -> isotropic ES            0.004941482856 Eh    ::
         :: -> anisotropic ES          0.010157819244 Eh    ::
         :: -> anisotropic XC          0.017932484623 Eh    ::
         :: -> dispersion             -0.017710580655 Eh    ::
         :: repulsion energy           0.430916308738 Eh    ::
         :: add. restraining           0.000000000000 Eh    ::
         :: total charge              -0.000000000000 e     ::
         :::::::::::::::::::::::::::::::::::::::::::::::::::::

      ----------------------------------------------------------- 
     |                   =====================                   |
     |                        A N C O P T                        |
     |                   =====================                   |
     |               Approximate Normal Coordinate               |
     |                Rational Function Optimizer                |
      ----------------------------------------------------------- 

          ...................................................
          :                      SETUP                      :
          :.................................................:
          :   optimization level            normal          :
          :   max. optcycles                   200          :
          :   ANC micro-cycles                  20          :
          :   degrees of freedom                81          :
          :.................................................:
          :   RF solver                   davidson          :
          :   write xtbopt.log                true          :
          :   linear?                        false          :
          :   energy convergence         0.5000000E-05 Eh   :
          :   grad. convergence          0.1000000E-02 Eh/α :
          :   maxmium RF displ.          2.0000000          :
          :   Hlow (freq-cutoff)         0.2000000E-01      :
          :   Hmax (freq-cutoff)         5.0000000          :
          :   S6 in model hess.         70.0000000          :
          ...................................................

generating ANC from model Hessian ...
Using Lindh-Hessian (1995)
 Shifting diagonal of input Hessian by   1.890786635903377E-002
 Lowest  eigenvalues of input Hessian
    0.000000    0.000000    0.000000    0.000000    0.000000    0.000000
    0.020000    0.021279    0.022346    0.023402    0.024228    0.024559
    0.027225    0.029141    0.029949    0.032642    0.033941    0.036020
 Highest eigenvalues
    1.205623    1.220002    1.233087    1.267598    1.297219    1.322041
 

........................................................................
.............................. CYCLE    1 ..............................
........................................................................

 iter      E             dE          RMSdq      gap      omega  full diag
   1    -29.9141734 -0.299142E+02  0.205E-05   12.51       0.0  T
   2    -29.9141734 -0.117240E-11  0.114E-05   12.51    1630.1  T
   3    -29.9141734 -0.675016E-13  0.437E-06   12.51    4250.8  T
     SCC iter.                  ...        0 min,  0.002 sec
     gradient                   ...        0 min,  0.003 sec
 * total energy  :   -29.4832273 Eh     change       -0.1462652E-10 Eh
   gradient norm :     0.0276392 Eh/α   predicted     0.0000000E+00 (-100.00%)
   displ. norm   :     0.1604387 α      lambda       -0.2524407E-02
   maximum displ.:     0.0770891 α      in ANC's #36, #24, #9, ...

........................................................................
.............................. CYCLE    2 ..............................
........................................................................

 iter      E             dE          RMSdq      gap      omega  full diag
   1    -29.9229571 -0.299230E+02  0.133E-01   12.67       0.0  T
   2    -29.9229610 -0.392455E-05  0.763E-02   12.67       1.0  T
   3    -29.9229616 -0.591676E-06  0.401E-03   12.67       4.6  T
   4    -29.9229616 -0.524035E-07  0.125E-03   12.67      14.8  T
   5    -29.9229616 -0.260075E-08  0.677E-04   12.67      27.4  T
   6    -29.9229616 -0.401279E-09  0.622E-05   12.67     298.5  T
     SCC iter.                  ...        0 min,  0.004 sec
     gradient                   ...        0 min,  0.003 sec
 * total energy  :   -29.4848788 Eh     change       -0.1651495E-02 Eh
   gradient norm :     0.0122161 Eh/α   predicted    -0.1294697E-02 ( -21.60%)
   displ. norm   :     0.0811082 α      lambda       -0.4397374E-03
   maximum displ.:     0.0418190 α      in ANC's #9, #36, #24, ...

........................................................................
.............................. CYCLE    3 ..............................
........................................................................

 iter      E             dE          RMSdq      gap      omega  full diag
   1    -29.9286418 -0.299286E+02  0.598E-02   12.74       0.0  T
   2    -29.9286442 -0.239898E-05  0.337E-02   12.75       1.0  T
   3    -29.9286443 -0.991331E-07  0.402E-03   12.75       4.6  T
   4    -29.9286443 -0.275025E-07  0.656E-04   12.75      28.3  T
   5    -29.9286443 -0.202583E-08  0.366E-04   12.75      50.7  T
     SCC iter.                  ...        0 min,  0.004 sec
     gradient                   ...        0 min,  0.003 sec
 * total energy  :   -29.4851159 Eh     change       -0.2371311E-03 Eh
   gradient norm :     0.0021688 Eh/α   predicted    -0.2213589E-03 (  -6.65%)
   displ. norm   :     0.0236256 α      lambda       -0.1831602E-04
   maximum displ.:     0.0142575 α      in ANC's #1, #9, #4, ...

........................................................................
.............................. CYCLE    4 ..............................
........................................................................

 iter      E             dE          RMSdq      gap      omega  full diag
   1    -29.9294160 -0.299294E+02  0.727E-03   12.76       0.0  T
   2    -29.9294160 -0.763101E-07  0.410E-03   12.76       4.5  T
   3    -29.9294160 -0.143614E-08  0.817E-04   12.76      22.7  T
   4    -29.9294160 -0.705992E-09  0.127E-04   12.76     145.9  T
     SCC iter.                  ...        0 min,  0.003 sec
     gradient                   ...        0 min,  0.003 sec
 * total energy  :   -29.4851299 Eh     change       -0.1398449E-04 Eh
   gradient norm :     0.0006411 Eh/α   predicted    -0.9164572E-05 ( -34.47%)
   displ. norm   :     0.0759528 α      lambda       -0.2227683E-04
   maximum displ.:     0.0536063 α      in ANC's #1, #9, #4, ...

........................................................................
.............................. CYCLE    5 ..............................
........................................................................

 iter      E             dE          RMSdq      gap      omega  full diag
   1    -29.9303049 -0.299303E+02  0.157E-02   12.77       0.0  T
   2    -29.9303051 -0.140139E-06  0.916E-03   12.78       2.0  T
   3    -29.9303051 -0.819869E-08  0.945E-04   12.78      19.6  T
   4    -29.9303051 -0.304316E-08  0.284E-04   12.78      65.3  T
     SCC iter.                  ...        0 min,  0.005 sec
     gradient                   ...        0 min,  0.003 sec
 * total energy  :   -29.4851485 Eh     change       -0.1857271E-04 Eh
   gradient norm :     0.0026597 Eh/α   predicted    -0.1119145E-04 ( -39.74%)
   displ. norm   :     0.0368006 α      lambda       -0.1217113E-04
   maximum displ.:     0.0298064 α      in ANC's #1, #4, #10, ...

........................................................................
.............................. CYCLE    6 ..............................
........................................................................

 iter      E             dE          RMSdq      gap      omega  full diag
   1    -29.9301317 -0.299301E+02  0.531E-03   12.78       0.0  T
   2    -29.9301317 -0.972934E-08  0.316E-03   12.78       5.9  T
   3    -29.9301317 -0.715886E-09  0.214E-04   12.78      86.8  T
   4    -29.9301317 -0.159226E-09  0.822E-05   12.78     225.8  T
     SCC iter.                  ...        0 min,  0.003 sec
     gradient                   ...        0 min,  0.002 sec
 * total energy  :   -29.4851596 Eh     change       -0.1114914E-04 Eh
   gradient norm :     0.0021305 Eh/α   predicted    -0.6105121E-05 ( -45.24%)
   displ. norm   :     0.1404481 α      lambda       -0.4350863E-04
   maximum displ.:     0.1164511 α      in ANC's #1, #4, #10, ...

........................................................................
.............................. CYCLE    7 ..............................
........................................................................

 iter      E             dE          RMSdq      gap      omega  full diag
   1    -29.9294022 -0.299294E+02  0.197E-02   12.79       0.0  T
   2    -29.9294023 -0.151874E-06  0.117E-02   12.79       1.6  T
   3    -29.9294023 -0.901820E-08  0.881E-04   12.79      21.1  T
   4    -29.9294023 -0.285129E-08  0.310E-04   12.79      59.9  T
     SCC iter.                  ...        0 min,  0.002 sec
     gradient                   ...        0 min,  0.002 sec
 * total energy  :   -29.4851895 Eh     change       -0.2981556E-04 Eh
   gradient norm :     0.0007095 Eh/α   predicted    -0.2218483E-04 ( -25.59%)
   displ. norm   :     0.0931461 α      lambda       -0.1071469E-04
   maximum displ.:     0.0809850 α      in ANC's #1, #4, #10, ...

........................................................................
.............................. CYCLE    8 ..............................
........................................................................

 iter      E             dE          RMSdq      gap      omega  full diag
   1    -29.9292042 -0.299292E+02  0.118E-02   12.78       0.0  T
   2    -29.9292042 -0.276583E-07  0.704E-03   12.78       2.6  T
   3    -29.9292042 -0.354505E-08  0.461E-04   12.78      40.3  T
   4    -29.9292042 -0.136977E-08  0.204E-04   12.78      91.0  T
     SCC iter.                  ...        0 min,  0.002 sec
     gradient                   ...        0 min,  0.002 sec
 * total energy  :   -29.4852006 Eh     change       -0.1117305E-04 Eh
   gradient norm :     0.0011947 Eh/α   predicted    -0.5378449E-05 ( -51.86%)
   displ. norm   :     0.0312986 α      lambda       -0.4462652E-05
   maximum displ.:     0.0288415 α      in ANC's #1, #9, #8, ...

........................................................................
.............................. CYCLE    9 ..............................
........................................................................

 iter      E             dE          RMSdq      gap      omega  full diag
   1    -29.9294131 -0.299294E+02  0.369E-03   12.77       0.0  T
   2    -29.9294131 -0.128275E-07  0.219E-03   12.77       8.5  T
   3    -29.9294131 -0.612630E-09  0.267E-04   12.77      69.6  T
   4    -29.9294131 -0.224567E-09  0.790E-05   12.77     235.0  T
     SCC iter.                  ...        0 min,  0.002 sec
     gradient                   ...        0 min,  0.002 sec
 * total energy  :   -29.4852061 Eh     change       -0.5519055E-05 Eh
   gradient norm :     0.0005578 Eh/α   predicted    -0.2248085E-05 ( -59.27%)
   displ. norm   :     0.0308893 α      lambda       -0.4053505E-05
   maximum displ.:     0.0263325 α      in ANC's #1, #6, #9, ...

........................................................................
.............................. CYCLE   10 ..............................
........................................................................

 iter      E             dE          RMSdq      gap      omega  full diag
   1    -29.9294492 -0.299294E+02  0.370E-03   12.76       0.0  T
   2    -29.9294492 -0.862838E-08  0.222E-03   12.76       8.4  T
   3    -29.9294492 -0.236902E-09  0.218E-04   12.76      85.1  T
   4    -29.9294492 -0.405429E-09  0.678E-05   12.76     274.1  T
     SCC iter.                  ...        0 min,  0.004 sec
     gradient                   ...        0 min,  0.002 sec
 * total energy  :   -29.4852111 Eh     change       -0.4950267E-05 Eh
   gradient norm :     0.0003341 Eh/α   predicted    -0.2029479E-05 ( -59.00%)
   displ. norm   :     0.0348417 α      lambda       -0.3615722E-05
   maximum displ.:     0.0274989 α      in ANC's #1, #6, #5, ...

   *** GEOMETRY OPTIMIZATION CONVERGED AFTER 10 ITERATIONS ***

------------------------------------------------------------------------
 total energy gain   :        -0.0019838 Eh       -1.2448 kcal/mol
 total RMSD          :         0.0941354 a0        0.0498 Å
 total power (kW/mol):        -0.5208441 (step)  -57.8015 (real)
------------------------------------------------------------------------

 ANCopt (total)                0 d,  0 h,  0 min,  0.090 sec
 optimizer setup                ...        0 min,  0.002 sec (  2.386%)
 model hessian                  ...        0 min,  0.011 sec ( 12.741%)
 ANC generation                 ...        0 min,  0.001 sec (  1.415%)
 coordinate transformation      ...        0 min,  0.000 sec (  0.163%)
 single point calculation       ...        0 min,  0.069 sec ( 76.239%)
 optimization log               ...        0 min,  0.001 sec (  1.220%)
 hessian update                 ...        0 min,  0.000 sec (  0.122%)
 rational function              ...        0 min,  0.002 sec (  1.687%)

================
 final structure:
================
29
 xtb: 6.6.1 (8d0f1dd)
C           -3.43731726118402       -1.61831528382653        0.17141676363949
C           -3.58286863285919       -0.18515705395876       -0.32762041268754
C           -2.51422971297271        0.75789510063061        0.22698181468467
C           -1.10935172465959        0.44634608127289       -0.28429926734822
C           -0.08409615443515        1.45387314721716        0.23198136071523
C            1.32808944368167        1.20839324189283       -0.30191680923493
C            1.96055534030524       -0.07559524533710        0.23081091967870
C            3.40030054703443       -0.24829159552083       -0.24749964526351
C            4.01413550991704       -1.54480007630446        0.26715717766878
H           -3.41417626191896       -1.64139609250141        1.25892807784899
H           -2.52347243825810       -2.07238987130365       -0.20230149517051
H           -4.27646541357065       -2.22254075852544       -0.16602764528792
H           -4.56517559725358        0.19165327806450       -0.03237058485054
H           -3.54074462409042       -0.17540760280323       -1.41924762668845
H           -2.77223230397213        1.78252091837458       -0.05322510602444
H           -2.52051629754958        0.70421347166349        1.31835603843330
H           -1.11162262946835        0.46331192527219       -1.37696041198439
H           -0.82421388758532       -0.55519335612840        0.03629801821327
H           -0.06574365982267        1.42245726456783        1.32411005335249
H           -0.39986640134308        2.45824963196717       -0.06222520524026
H            1.96073793973261        2.05345830734479       -0.01813594913256
H            1.29950018740556        1.17188410681840       -1.39364842583787
H            1.37735208617132       -0.93782509662565       -0.09674081756302
H            1.94436121943294       -0.05778132719928        1.32326982614091
H            3.41944453234966       -0.24684906902728       -1.33987002548115
H            4.00034284951005        0.59832146922356        0.09423695697347
H            5.03784812225030       -1.65178930329577       -0.08421345466272
H            3.44109108271429       -2.40204670533073       -0.08017740355396
H            4.02145614043838       -1.55786550662152        1.35504627866270
           -------------------------------------------------
          |                Final Singlepoint                |
           -------------------------------------------------

          ...................................................
          :                      SETUP                      :
          :.................................................:
          :  # basis functions                  56          :
          :  # atomic orbitals                  56          :
          :  # shells                           38          :
          :  # electrons                        56          :
          :  max. iterations                   250          :
          :  Hamiltonian                  GFN2-xTB          :
          :  restarted?                      false          :
          :  GBSA solvation                  false          :
          :  PC potential                    false          :
          :  electronic temp.          300.0000000     K    :
          :  accuracy                    1.0000000          :
          :  -> integral cutoff          0.2500000E+02      :
          :  -> integral neglect         0.1000000E-07      :
          :  -> SCF convergence          0.1000000E-05 Eh   :
          :  -> wf. convergence          0.1000000E-03 e    :
          :  Broyden damping             0.4000000          :
          ...................................................

 iter      E             dE          RMSdq      gap      omega  full diag
   1    -29.9294492 -0.299294E+02  0.303E-05   12.76       0.0  T
   2    -29.9294492 -0.746070E-12  0.175E-05   12.76    1059.3  T
   3    -29.9294492 -0.131450E-12  0.277E-06   12.76    6704.1  T

   *** convergence criteria satisfied after 3 iterations ***

         #    Occupation            Energy/Eh            Energy/eV
      -------------------------------------------------------------
         1        2.0000           -0.6223333             -16.9346
       ...           ...                  ...                  ...
        22        2.0000           -0.4345176             -11.8238
        23        2.0000           -0.4280827             -11.6487
        24        2.0000           -0.4259384             -11.5904
        25        2.0000           -0.4229382             -11.5087
        26        2.0000           -0.4190310             -11.4024
        27        2.0000           -0.4131926             -11.2435
        28        2.0000           -0.4105056             -11.1704 (HOMO)
        29                          0.0584341               1.5901 (LUMO)
        30                          0.0781339               2.1261
        31                          0.1036165               2.8195
        32                          0.1164851               3.1697
        33                          0.1208848               3.2894
       ...                                ...                  ...
        56                          0.3293777               8.9628
      -------------------------------------------------------------
                  HL-Gap            0.4689397 Eh           12.7605 eV
             Fermi-level           -0.1760357 Eh           -4.7902 eV

 SCC (total)                   0 d,  0 h,  0 min,  0.007 sec
 SCC setup                      ...        0 min,  0.001 sec ( 13.700%)
 Dispersion                     ...        0 min,  0.000 sec (  1.107%)
 classical contributions        ...        0 min,  0.000 sec (  0.328%)
 integral evaluation            ...        0 min,  0.001 sec ( 10.480%)
 iterations                     ...        0 min,  0.002 sec ( 28.104%)
 molecular gradient             ...        0 min,  0.002 sec ( 32.055%)
 printout                       ...        0 min,  0.001 sec ( 13.743%)

         :::::::::::::::::::::::::::::::::::::::::::::::::::::
         ::                     SUMMARY                     ::
         :::::::::::::::::::::::::::::::::::::::::::::::::::::
         :: total energy             -29.485211092761 Eh    ::
         :: gradient norm              0.000333916182 Eh/a0 ::
         :: HOMO-LUMO gap             12.760497499064 eV    ::
         ::.................................................::
         :: SCC energy               -29.929449210403 Eh    ::
         :: -> isotropic ES            0.005287478021 Eh    ::
         :: -> anisotropic ES          0.009676327980 Eh    ::
         :: -> anisotropic XC          0.018135060365 Eh    ::
         :: -> dispersion             -0.017730426464 Eh    ::
         :: repulsion energy           0.444214558456 Eh    ::
         :: add. restraining           0.000000000000 Eh    ::
         :: total charge               0.000000000000 e     ::
         :::::::::::::::::::::::::::::::::::::::::::::::::::::

           ------------------------------------------------- 
          |                Numerical Hessian                |
           ------------------------------------------------- 
step length          :   0.00500
SCC accuracy         :   0.30000
Hessian scale factor :   1.00000
frozen atoms in %    :   0.00000    0
RMS gradient         :   0.00033
estimated CPU  time      0.13 min
estimated wall time      0.03 min

writing file <hessian>.

 projected vibrational frequencies (cm⁻¹)
eigval :       -0.00    -0.00    -0.00    -0.00    -0.00     0.00
eigval :       31.51    48.79    58.60    87.42   107.28   119.63
eigval :      173.86   204.07   233.94   249.32   281.77   330.49
eigval :      403.20   454.89   497.01   764.16   776.78   804.72
eigval :      818.39   856.49   927.44   931.47   936.56   984.16
eigval :      993.13  1029.24  1037.85  1084.20  1099.91  1113.00
eigval :     1127.76  1133.82  1147.73  1177.89  1195.94  1225.98
eigval :     1252.67  1267.13  1276.08  1283.45  1290.68  1293.31
eigval :     1300.61  1348.56  1352.21  1355.94  1377.07  1380.43
eigval :     1415.88  1416.56  1488.66  1490.33  1493.38  1495.74
eigval :     1498.11  1498.86  1501.14  1505.34  1507.24  1508.37
eigval :     1511.28  2955.17  2955.93  2957.09  2960.81  2962.27
eigval :     2968.94  2971.41  2974.19  2976.43  2980.28  2980.85
eigval :     2984.77  2989.98  3007.68  3028.91  3030.84  3031.79
eigval :     3034.28  3037.52  3046.74
           -------------------------------------------------
          |                Property Printout                |
           -------------------------------------------------

    * Orbital Energies and Occupations

         #    Occupation            Energy/Eh            Energy/eV
      -------------------------------------------------------------
         1        2.0000           -0.6223333             -16.9346
       ...           ...                  ...                  ...
        16        2.0000           -0.4782825             -13.0147
        17        2.0000           -0.4705356             -12.8039
        18        2.0000           -0.4587808             -12.4841
        19        2.0000           -0.4550477             -12.3825
        20        2.0000           -0.4508364             -12.2679
        21        2.0000           -0.4395745             -11.9614
        22        2.0000           -0.4345176             -11.8238
        23        2.0000           -0.4280827             -11.6487
        24        2.0000           -0.4259384             -11.5904
        25        2.0000           -0.4229382             -11.5087
        26        2.0000           -0.4190310             -11.4024
        27        2.0000           -0.4131926             -11.2435
        28        2.0000           -0.4105056             -11.1704 (HOMO)
        29                          0.0584341               1.5901 (LUMO)
        30                          0.0781339               2.1261
        31                          0.1036165               2.8195
        32                          0.1164851               3.1697
        33                          0.1208848               3.2894
        34                          0.1258043               3.4233
        35                          0.1324716               3.6047
        36                          0.1447368               3.9385
        37                          0.1483533               4.0369
        38                          0.1557984               4.2395
        39                          0.1691593               4.6031
       ...                                ...                  ...
        56                          0.3293778               8.9628
      -------------------------------------------------------------
                  HL-Gap            0.4689397 Eh           12.7605 eV
             Fermi-level           -0.1760357 Eh           -4.7902 eV

     #   Z          covCN         q      C6AA      α(0)
     1   6 C        3.751    -0.101    22.499     6.764
     2   6 C        3.800    -0.053    21.518     6.605
     3   6 C        3.802    -0.058    21.618     6.620
     4   6 C        3.802    -0.059    21.634     6.622
     5   6 C        3.802    -0.058    21.615     6.619
     6   6 C        3.802    -0.058    21.617     6.619
     7   6 C        3.803    -0.059    21.636     6.622
     8   6 C        3.801    -0.053    21.525     6.606
     9   6 C        3.752    -0.102    22.504     6.765
    10   1 H        0.925     0.034     2.536     2.490
    11   1 H        0.925     0.034     2.529     2.487
    12   1 H        0.925     0.031     2.578     2.511
    13   1 H        0.924     0.027     2.625     2.533
    14   1 H        0.924     0.029     2.601     2.522
    15   1 H        0.924     0.026     2.645     2.543
    16   1 H        0.924     0.029     2.594     2.519
    17   1 H        0.924     0.029     2.605     2.524
    18   1 H        0.925     0.035     2.515     2.480
    19   1 H        0.924     0.029     2.603     2.523
    20   1 H        0.924     0.027     2.630     2.536
    21   1 H        0.924     0.027     2.623     2.533
    22   1 H        0.924     0.029     2.604     2.524
    23   1 H        0.924     0.032     2.563     2.504
    24   1 H        0.924     0.030     2.588     2.516
    25   1 H        0.924     0.028     2.617     2.530
    26   1 H        0.924     0.027     2.623     2.533
    27   1 H        0.925     0.032     2.557     2.500
    28   1 H        0.925     0.033     2.547     2.496
    29   1 H        0.925     0.033     2.544     2.494

 Mol. C6AA /au·bohr⁶  :       5485.367705
 Mol. C8AA /au·bohr⁸  :     113776.855989
 Mol. α(0) /au        :        110.138697


Wiberg/Mayer (AO) data.
largest (>0.10) Wiberg bond orders for each atom

 ---------------------------------------------------------------------------
     #   Z sym  total        # sym  WBO       # sym  WBO       # sym  WBO
 ---------------------------------------------------------------------------
     1   6 C    3.997 --     2 C    1.020    12 H    0.988    10 H    0.988
                            11 H    0.986
     2   6 C    3.998 --     1 C    1.020     3 C    1.007    13 H    0.979
                            14 H    0.978
     3   6 C    3.997 --     4 C    1.008     2 C    1.007    15 H    0.977
                            16 H    0.977
     4   6 C    3.998 --     3 C    1.008     5 C    1.008    17 H    0.977
                            18 H    0.973
     5   6 C    3.997 --     4 C    1.008     6 C    1.006    19 H    0.977
                            20 H    0.977
     6   6 C    3.997 --     7 C    1.008     5 C    1.006    22 H    0.977
                            21 H    0.977
     7   6 C    3.997 --     6 C    1.008     8 C    1.008    24 H    0.977
                            23 H    0.975
     8   6 C    3.998 --     9 C    1.019     7 C    1.008    25 H    0.979
                            26 H    0.979
     9   6 C    3.997 --     8 C    1.019    29 H    0.988    28 H    0.988
                            27 H    0.988
    10   1 H    0.999 --     1 C    0.988
    11   1 H    0.999 --     1 C    0.986
    12   1 H    0.999 --     1 C    0.988
    13   1 H    0.999 --     2 C    0.979
    14   1 H    0.999 --     2 C    0.978
    15   1 H    0.999 --     3 C    0.977
    16   1 H    0.999 --     3 C    0.977
    17   1 H    0.999 --     4 C    0.977
    18   1 H    0.999 --     4 C    0.973
    19   1 H    0.999 --     5 C    0.977
    20   1 H    0.999 --     5 C    0.977
    21   1 H    0.999 --     6 C    0.977
    22   1 H    0.999 --     6 C    0.977
    23   1 H    0.999 --     7 C    0.975
    24   1 H    0.999 --     7 C    0.977
    25   1 H    0.999 --     8 C    0.979
    26   1 H    0.999 --     8 C    0.979
    27   1 H    0.999 --     9 C    0.988
    28   1 H    0.999 --     9 C    0.988
    29   1 H    0.999 --     9 C    0.988
 ---------------------------------------------------------------------------

Topologies differ in total number of bonds
Writing topology from bond orders to xtbtopo.mol

molecular dipole:
                 x           y           z       tot (Debye)
 q only:       -0.003      -0.031       0.008
   full:       -0.001      -0.022       0.008       0.060
molecular quadrupole (traceless):
                xx          xy          yy          xz          yz          zz
 q only:        0.023      -0.056       0.146      -0.017      -0.067      -0.169
  q+dip:       -1.180       0.324      -0.510       0.138       0.265       1.690
   full:       -0.539       0.146      -0.214       0.062       0.117       0.753

           -------------------------------------------------
          |                Geometry Summary                 |
           -------------------------------------------------

      molecular mass/u    :      128.2554381
   center of mass at/Å    :        0.0015135      -0.0028224      -0.0000628
  moments of inertia/u·Å² :        0.1786982E+03   0.9902746E+03   0.1122780E+04
rotational constants/cm⁻¹ :        0.9433576E-01   0.1702319E-01   0.1501420E-01

 * 28 selected distances

     #   Z          #   Z                                           value/Å
     1   6 C        2   6 C                                       1.5245216
     2   6 C        3   6 C                                       1.5293530
     3   6 C        4   6 C                                       1.5271391
     4   6 C        5   6 C                                       1.5273526
     5   6 C        6   6 C                                       1.5295673 (max)
     6   6 C        7   6 C                                       1.5272324
     7   6 C        8   6 C                                       1.5269158
     8   6 C        9   6 C                                       1.5240078
     1   6 C       10   1 H                                       1.0880024
     1   6 C       11   1 H                                       1.0867206 (min)
     1   6 C       12   1 H                                       1.0877164
     2   6 C       13   1 H                                       1.0927423
     2   6 C       14   1 H                                       1.0924833
     3   6 C       15   1 H                                       1.0931329
     3   6 C       16   1 H                                       1.0927118
     4   6 C       17   1 H                                       1.0927953
     4   6 C       18   1 H                                       1.0895722
     5   6 C       19   1 H                                       1.0927347
     5   6 C       20   1 H                                       1.0931792
     6   6 C       21   1 H                                       1.0931198
     6   6 C       22   1 H                                       1.0927161
     7   6 C       23   1 H                                       1.0912638
     7   6 C       24   1 H                                       1.0927242
     8   6 C       25   1 H                                       1.0925392
     8   6 C       26   1 H                                       1.0925148
     9   6 C       27   1 H                                       1.0876101
     9   6 C       28   1 H                                       1.0880686
     9   6 C       29   1 H                                       1.0879923

 * 2 distinct bonds (by element types)

   Z      Z             #   av. dist./Å        max./Å        min./Å
   1 H    6 C          20     1.0910170     1.0931792     1.0867206
   6 C    6 C           8     1.5270112     1.5295673     1.5240078

           -------------------------------------------------
          |               Frequency Printout                |
           -------------------------------------------------
 projected vibrational frequencies (cm⁻¹)
eigval :       -0.00    -0.00    -0.00    -0.00    -0.00     0.00
eigval :       31.51    48.79    58.60    87.42   107.28   119.63
eigval :      173.86   204.07   233.94   249.32   281.77   330.49
eigval :      403.20   454.89   497.01   764.16   776.78   804.72
eigval :      818.39   856.49   927.44   931.47   936.56   984.16
eigval :      993.13  1029.24  1037.85  1084.20  1099.91  1113.00
eigval :     1127.76  1133.82  1147.73  1177.89  1195.94  1225.98
eigval :     1252.67  1267.13  1276.08  1283.45  1290.68  1293.31
eigval :     1300.61  1348.56  1352.21  1355.94  1377.07  1380.43
eigval :     1415.88  1416.56  1488.66  1490.33  1493.38  1495.74
eigval :     1498.11  1498.86  1501.14  1505.34  1507.24  1508.37
eigval :     1511.28  2955.17  2955.93  2957.09  2960.81  2962.27
eigval :     2968.94  2971.41  2974.19  2976.43  2980.28  2980.85
eigval :     2984.77  2989.98  3007.68  3028.91  3030.84  3031.79
eigval :     3034.28  3037.52  3046.74
 reduced masses (amu)
   1:  9.36   2:  9.93   3: 10.02   4:  9.98   5: 10.24   6:  9.38   7:  6.74   8:  8.56
   9:  6.75  10:  6.89  11:  7.83  12:  6.78  13:  6.41  14:  6.87  15:  2.58  16:  4.25
  17:  9.46  18:  7.62  19:  8.55  20:  7.79  21:  9.00  22:  2.15  23:  2.02  24:  2.85
  25:  2.97  26:  3.78  27:  4.22  28:  7.00  29:  5.74  30:  6.40  31:  4.89  32:  5.84
  33:  4.18  34:  8.04  35:  7.09  36:  7.82  37:  8.06  38:  7.47  39:  7.97  40:  7.24
  41:  5.36  42:  4.53  43:  3.50  44:  3.68  45:  3.05  46:  1.96  47:  2.58  48:  2.55
  49:  2.23  50:  4.33  51:  4.20  52:  4.73  53:  5.36  54:  5.40  55:  3.21  56:  3.18
  57:  1.90  58:  1.91  59:  1.90  60:  1.86  61:  1.90  62:  2.00  63:  1.83  64:  1.53
  65:  1.66  66:  1.65  67:  1.56  68:  1.89  69:  1.92  70:  1.91  71:  1.92  72:  1.90
  73:  1.68  74:  1.74  75:  1.52  76:  1.59  77:  1.52  78:  1.56  79:  1.81  80:  1.58
  81:  1.68  82:  1.95  83:  1.91  84:  1.91  85:  1.74  86:  1.29  87:  1.50
 IR intensities (km·mol⁻¹)
   1:  0.00   2:  0.00   3:  0.00   4:  0.00   5:  0.00   6:  0.00   7:  0.00   8:  0.01
   9:  0.01  10:  0.01  11:  0.01  12:  0.00  13:  0.17  14:  0.15  15:  0.00  16:  0.04
  17:  0.02  18:  0.09  19:  0.04  20:  1.10  21:  0.08  22: 11.14  23:  6.68  24:  7.85
  25:  0.26  26:  0.99  27:  0.16  28:  3.22  29:  5.58  30:  1.51  31:  0.25  32:  1.38
  33:  0.29  34:  1.50  35:  0.15  36:  1.04  37:  0.34  38:  0.52  39:  0.97  40:  0.48
  41:  1.69  42:  0.96  43:  0.76  44:  0.11  45:  0.01  46:  0.09  47:  0.27  48:  0.74
  49:  0.02  50:  0.15  51:  1.86  52:  1.34  53:  4.06  54:  0.62  55:  1.93  56:  0.96
  57:  0.30  58:  0.63  59:  0.15  60:  0.14  61:  0.24  62:  0.09  63:  0.26  64:  2.32
  65:  2.35  66:  0.19  67:  2.14  68: 13.67  69: 13.09  70: 11.30  71:  1.07  72: 22.56
  73: 20.16  74: 24.26  75: 16.38  76: 12.37  77: 45.74  78: 20.58  79:249.61  80: 79.02
  81: 71.40  82: 62.02  83: 54.40  84: 75.29  85: 44.16  86: 30.93  87: 38.46
 Raman intensities (amu)
   1:  0.00   2:  0.00   3:  0.00   4:  0.00   5:  0.00   6:  0.00   7:  0.00   8:  0.00
   9:  0.00  10:  0.00  11:  0.00  12:  0.00  13:  0.00  14:  0.00  15:  0.00  16:  0.00
  17:  0.00  18:  0.00  19:  0.00  20:  0.00  21:  0.00  22:  0.00  23:  0.00  24:  0.00
  25:  0.00  26:  0.00  27:  0.00  28:  0.00  29:  0.00  30:  0.00  31:  0.00  32:  0.00
  33:  0.00  34:  0.00  35:  0.00  36:  0.00  37:  0.00  38:  0.00  39:  0.00  40:  0.00
  41:  0.00  42:  0.00  43:  0.00  44:  0.00  45:  0.00  46:  0.00  47:  0.00  48:  0.00
  49:  0.00  50:  0.00  51:  0.00  52:  0.00  53:  0.00  54:  0.00  55:  0.00  56:  0.00
  57:  0.00  58:  0.00  59:  0.00  60:  0.00  61:  0.00  62:  0.00  63:  0.00  64:  0.00
  65:  0.00  66:  0.00  67:  0.00  68:  0.00  69:  0.00  70:  0.00  71:  0.00  72:  0.00
  73:  0.00  74:  0.00  75:  0.00  76:  0.00  77:  0.00  78:  0.00  79:  0.00  80:  0.00
  81:  0.00  82:  0.00  83:  0.00  84:  0.00  85:  0.00  86:  0.00  87:  0.00
 output can be read by thermo (or use thermo option).
 writing <g98.out> molden fake output.
 recommended (thermochemical) frequency scaling factor: 1.0
           -------------------------------------------------
          |             Thermodynamic Functions             |
           -------------------------------------------------

Molecule has no symmetry elements
It seems to be the C1 point group
c1  symmetry found (for desy threshold:  0.10E+00) used in thermo

          ...................................................
          :                      SETUP                      :
          :.................................................:
          :  # frequencies                          81      :
          :  # imaginary freq.                       0      :
          :  linear?                             false      :
          :  only rotor calc.                    false      :
          :  symmetry                               c1      :
          :  rotational number                       1      :
          :  scaling factor                  1.0000000      :
          :  rotor cutoff                   50.0000000 cm⁻¹ :
          :  imag. cutoff                  -20.0000000 cm⁻¹ :
          :.................................................:

    mode    ω/cm⁻¹     T·S(HO)/kcal·mol⁻¹    T·S(FR)/kcal·mol⁻¹   T·S(vib)
   ------------------------------------------------------------------------
       1     31.51    -1.70899 ( 13.62%)    -1.19312 ( 86.38%)    -1.26340
       2     48.79    -1.45070 ( 47.56%)    -1.06365 ( 52.44%)    -1.24773
       3     58.60    -1.34276 ( 65.36%)    -1.00940 ( 34.64%)    -1.22730
       4     87.42    -1.10819 ( 90.34%)    -0.89095 (  9.66%)    -1.08719
       5    107.28    -0.98911 ( 95.49%)    -0.83033 (  4.51%)    -0.98196
       6    119.63    -0.92615 ( 97.04%)    -0.79806 (  2.96%)    -0.92236
       7    173.86    -0.71358 ( 99.32%)    -0.68733 (  0.68%)    -0.71340
       8    204.07    -0.62494 ( 99.64%)    -0.63987 (  0.36%)    -0.62500
       9    233.94    -0.55112 ( 99.79%)    -0.59940 (  0.21%)    -0.55123
      10    249.32    -0.51741 ( 99.84%)    -0.58055 (  0.16%)    -0.51751
      11    281.77    -0.45405 ( 99.90%)    -0.54430 (  0.10%)    -0.45414
   ------------------------------------------------------------------------

   temp. (K)  partition function   enthalpy   heat capacity  entropy
                                   cal/mol     cal/K/mol   cal/K/mol   J/K/mol
 298.15  VIB  0.413E+05             5986.626     35.547     38.532
         ROT  0.108E+07              888.752      2.981     30.583
         INT  0.445E+11             6875.378     38.528     69.115
         TR   0.141E+28             1481.254      4.968     40.441
         TOT                        8356.6319    43.4964   109.5566   458.3848

       T/K    H(0)-H(T)+PV         H(T)/Eh          T*S/Eh         G(T)/Eh
   ------------------------------------------------------------------------
    298.15    0.133171E-01    0.285315E+00    0.520539E-01    0.233261E+00
   ------------------------------------------------------------------------

         :::::::::::::::::::::::::::::::::::::::::::::::::::::
         ::                  THERMODYNAMIC                  ::
         :::::::::::::::::::::::::::::::::::::::::::::::::::::
         :: total free energy         -29.251949810933 Eh   ::
         ::.................................................::
         :: total energy              -29.485211092761 Eh   ::
         :: zero point energy           0.271998019922 Eh   ::
         :: G(RRHO) w/o ZPVE           -0.038736738094 Eh   ::
         :: G(RRHO) contrib.            0.233261281828 Eh   ::
         :::::::::::::::::::::::::::::::::::::::::::::::::::::
 
 normal mode %tage of torsion character
   1:  0.00   2:  0.00   3:  0.00   4:  0.00   5:  0.00   6:  0.00   7:  0.46   8:  0.35
   9:  0.56  10:  0.64  11:  0.58  12:  0.56  13:  0.49  14:  0.60  15:  0.85  16:  0.78
  17:  0.14  18:  0.48  19:  0.12  20:  0.21  21:  0.08  22:  0.52  23:  0.50  24:  0.50
  25:  0.50  26:  0.45  27:  0.39  28:  0.25  29:  0.17  30:  0.34  31:  0.22  32:  0.11
  33:  0.26  34:  0.16  35:  0.29  36:  0.14  37:  0.08  38:  0.13  39:  0.22  40:  0.47
  41:  0.30  42:  0.47  43:  0.21  44:  0.26  45:  0.20  46:  0.09  47:  0.15  48:  0.11
  49:  0.10  50:  0.08  51:  0.09  52:  0.11  53:  0.07  54:  0.07  55:  0.00  56:  0.00
  57:  0.63  58:  0.65  59:  0.66  60:  0.66  61:  0.64  62:  0.67  63:  0.61  64:  0.93
  65:  0.81  66:  0.81  67:  0.91  68:  0.27  69:  0.29  70:  0.26  71:  0.22  72:  0.36
  73:  0.03  74:  0.02  75:  0.02  76:  0.01  77:  0.02  78:  0.01  79:  0.01  80:  0.02
  81:  0.06  82:  0.05  83:  0.04  84:  0.04  85:  0.04  86:  0.00  87:  0.03
 recommended # of modes for mode following           4

optimized geometry written to: xtbopt.xyz


           -------------------------------------------------
          | TOTAL ENERGY              -29.485211092761 Eh   |
          | TOTAL ENTHALPY            -29.199895932210 Eh   |
          | TOTAL FREE ENERGY         -29.251949810933 Eh   |
          | GRADIENT NORM               0.000333914801 Eh/α |
          | HOMO-LUMO GAP              12.760497573969 eV   |
           -------------------------------------------------

------------------------------------------------------------------------
 * finished run on 2024/04/23 at 12:10:22.968     
------------------------------------------------------------------------
 total:
 * wall-time:     0 d,  0 h,  0 min,  0.756 sec
 *  cpu-time:     0 d,  0 h,  0 min,  2.802 sec
 * ratio c/w:     3.705 speedup
 SCF:
 * wall-time:     0 d,  0 h,  0 min,  0.017 sec
 *  cpu-time:     0 d,  0 h,  0 min,  0.063 sec
 * ratio c/w:     3.606 speedup
 ANC optimizer:
 * wall-time:     0 d,  0 h,  0 min,  0.111 sec
 *  cpu-time:     0 d,  0 h,  0 min,  0.410 sec
 * ratio c/w:     3.693 speedup
 analytical hessian:
 * wall-time:     0 d,  0 h,  0 min,  0.522 sec
 *  cpu-time:     0 d,  0 h,  0 min,  2.066 sec
 * ratio c/w:     3.961 speedup

