29
 energy: -29.483227302344 gnorm: 0.027639153274 xtb: 6.6.1 (8d0f1dd)
C           -3.38440600000000       -1.63198100000000        0.16376600000000
C           -3.58354700000000       -0.20186400000000       -0.31590600000000
C           -2.53031300000000        0.77165000000000        0.22319500000000
C           -1.11544900000000        0.48063100000000       -0.27872800000000
C           -0.08511600000000        1.49125900000000        0.22708400000000
C            1.33168200000000        1.23394500000000       -0.29460800000000
C            1.94766400000000       -0.06590400000000        0.22517800000000
C            3.38602200000000       -0.27758300000000       -0.25028900000000
C            3.99103800000000       -1.57292000000000        0.26805500000000
H           -3.37902900000000       -1.68542600000000        1.25463200000000
H           -2.43557500000000       -2.04492000000000       -0.18393700000000
H           -4.17469700000000       -2.29745300000000       -0.19299600000000
H           -4.58697100000000        0.14496100000000       -0.02939900000000
H           -3.57511900000000       -0.17119800000000       -1.41402400000000
H           -2.79932500000000        1.80224600000000       -0.04460100000000
H           -2.53868000000000        0.75028200000000        1.32019700000000
H           -1.10935400000000        0.46665200000000       -1.37579200000000
H           -0.81910200000000       -0.53051200000000        0.02184400000000
H           -0.07804700000000        1.48691900000000        1.32421200000000
H           -0.41026000000000        2.50230500000000       -0.05248300000000
H            1.98826900000000        2.07187500000000       -0.02437500000000
H            1.32210900000000        1.22083800000000       -1.39168800000000
H            1.33478200000000       -0.92154500000000       -0.08277700000000
H            1.91787700000000       -0.07434500000000        1.32203700000000
H            3.41087200000000       -0.26081000000000       -1.34845600000000
H            4.00107100000000        0.57817800000000        0.05991000000000
H            5.01535100000000       -1.71846100000000       -0.08439300000000
H            3.40721300000000       -2.43829500000000       -0.05356300000000
H            4.01416200000000       -1.58919000000000        1.36001800000000
29
 energy: -29.484878797412 gnorm: 0.012216085245 xtb: 6.6.1 (8d0f1dd)
C           -3.38090985952291       -1.62917664770311        0.16567997901059
C           -3.57480573688257       -0.19985847563717       -0.31818079202561
C           -2.52341965755974        0.76934073202681        0.22587808520239
C           -1.11270842995710        0.47525416304508       -0.28144711429824
C           -0.08511182452960        1.48380956988626        0.22921326842462
C            1.32858949320464        1.22648856156369       -0.29612660482975
C            1.94541004654620       -0.06961812315671        0.22803240138375
C            3.38199276020030       -0.27124052938313       -0.25150578483403
C            3.98314615692893       -1.56788019299459        0.26910273928143
H           -3.38082457156562       -1.67267661834142        1.25477410798716
H           -2.43764143277787       -2.04065369402550       -0.18968399458330
H           -4.18039580236089       -2.27484718312929       -0.19728525918387
H           -4.56868929014194        0.14732224594144       -0.01310483654663
H           -3.55601612577323       -0.17776803195226       -1.41340687233291
H           -2.79877186535297        1.79060963343600       -0.06016607868615
H           -2.53087734884970        0.73446132562579        1.32058776719580
H           -1.11238990549945        0.47993215627311       -1.37684961012132
H           -0.81948369268653       -0.52751836948856        0.03698093342219
H           -0.07341270430414        1.46826218384845        1.32430951627624
H           -0.39981102698521        2.49043642224659       -0.06850771478033
H            1.97387160553523        2.06404037925584       -0.00803829731413
H            1.31109889117699        1.20460365285252       -1.39104880051594
H            1.34219413628753       -0.92226814784756       -0.09708865142173
H            1.92647509292642       -0.06293082289327        1.32316122435192
H            3.40058457441769       -0.27243990361345       -1.34702899287924
H            3.99631359823626        0.57531522451026        0.07464253627556
H            5.00362968621306       -1.69909802771052       -0.08981721682115
H            3.39853802868258       -2.42710778317671       -0.05975986451731
H            4.00654720439365       -1.57545969945863        1.35879692687999
29
 energy: -29.485115928471 gnorm: 0.002168821954 xtb: 6.6.1 (8d0f1dd)
C           -3.38105659444462       -1.62928638000593        0.16654304392397
C           -3.57074140965522       -0.19780826266141       -0.31885364077492
C           -2.51872277398949        0.76918773081120        0.22603959452601
C           -1.11032801467073        0.47019483278260       -0.28256759219671
C           -0.08564457643777        1.47982663303900        0.22982650584530
C            1.32740771054614        1.22286044774958       -0.29630306390008
C            1.94368949971970       -0.07216434933151        0.22934205062089
C            3.37959450054110       -0.26633205351693       -0.25222374542187
C            3.98070135500914       -1.56484470574193        0.26948027675381
H           -3.38167439788532       -1.66609433271082        1.25409997693096
H           -2.44176698168305       -2.04246312064228       -0.19171254193653
H           -4.18712936104013       -2.26301221650719       -0.19773874340333
H           -4.55881630479130        0.15142000950743       -0.00732985114426
H           -3.54486170446324       -0.17948983282729       -1.41135174502892
H           -2.79439139006236        1.78639209473961       -0.06568070378354
H           -2.52468167721792        0.72675697127918        1.31829680878496
H           -1.11284957189913        0.48439886949690       -1.37572499756014
H           -0.81928521876610       -0.52863044443877        0.04140983980107
H           -0.07187029037634        1.45756049491829        1.32266036990958
H           -0.39515596492115        2.48372624524250       -0.07440462684373
H            1.96703045513285        2.05966699148377       -0.00194188201094
H            1.30541791211888        1.19524476708780       -1.38888882219015
H            1.34747534579821       -0.92461571609971       -0.10138676907603
H            1.92990491015251       -0.05859279555827        1.32229091599648
H            3.39459663922387       -0.27428712255380       -1.34509968263892
H            3.99174758874244        0.57584663262263        0.08032595977976
H            4.99931926204130       -1.68903020269924       -0.09191937983488
H            3.39407761116687       -2.41929388015283       -0.06257502973119
H            4.00113544211088       -1.56780330531255        1.35750047460334
29
 energy: -29.485129912961 gnorm: 0.000641050283 xtb: 6.6.1 (8d0f1dd)
C           -3.38325763415833       -1.62918995902689        0.16703626161869
C           -3.57051145619718       -0.19684410184603       -0.31950862278319
C           -2.51721193438161        0.76857261370386        0.22636825764952
C           -1.10949429458005        0.46851721991683       -0.28339933823350
C           -0.08571895901906        1.47846811817601        0.23016564940721
C            1.32739873880712        1.22191286301928       -0.29656123014494
C            1.94373986407057       -0.07262670782795        0.23004596924570
C            3.37963985723531       -0.26448412102291       -0.25236289574146
C            3.98142771070569       -1.56363599869601        0.26932130892479
H           -3.38238765092479       -1.66480804511294        1.25442106363045
H           -2.44567309861034       -2.04482590555713       -0.19230372901406
H           -4.19169760141628       -2.26007867994773       -0.19607165888609
H           -4.55777715860158        0.15353664942676       -0.00850156631629
H           -3.54299352899917       -0.17913709777010       -1.41158308672184
H           -2.79111827883189        1.78588802647354       -0.06496607724240
H           -2.52250686386022        0.72564514626849        1.31826259393767
H           -1.11197388734872        0.48310470452986       -1.37613605685806
H           -0.81890258105040       -0.53007494111712        0.04038334914944
H           -0.07203963287659        1.45520219033331        1.32261122682565
H           -0.39558043918155        2.48178751772353       -0.07377040282580
H            1.96675866829408        2.05843129883804       -0.00265054142349
H            1.30477522243422        1.19326111757728       -1.38872955539638
H            1.34899947102657       -0.92567717424470       -0.10051020194573
H            1.92997811545130       -0.05885037001065        1.32259656595793
H            3.39408644092658       -0.27206786282602       -1.34479159671002
H            3.99065419468089        0.57769891946487        0.08067169642097
H            4.99997669603471       -1.68712905572994       -0.09161979019582
H            3.39425860930795       -2.41713369757092       -0.06343353262670
H            4.00027341106278       -1.56612866714466        1.35712894029776
29
 energy: -29.485148485668 gnorm: 0.002659664210 xtb: 6.6.1 (8d0f1dd)
C           -3.39230658557895       -1.62827545772362        0.16830097028211
C           -3.57091108326596       -0.19412410666538       -0.32115225627935
C           -2.51362637467200        0.76624223928267        0.22667913151597
C           -1.10733859652345        0.46321371737565       -0.28502184881117
C           -0.08562369821695        1.47408636299181        0.23072015443711
C            1.32755012580621        1.21940452192231       -0.29716348871983
C            1.94513845636075       -0.07344910511245        0.23149579243438
C            3.38127255543506       -0.25958050251329       -0.25204876164807
C            3.98515516954604       -1.55963071999299        0.26869823380301
H           -3.38580040908258       -1.66062789416236        1.25554502128069
H           -2.46010124352230       -2.05253930192236       -0.19478804291915
H           -4.20828799223001       -2.25191722310040       -0.18945185702709
H           -4.55688129002344        0.16081403408985       -0.01358290915903
H           -3.53889671217927       -0.17806141919349       -1.41260998772889
H           -2.78235916449132        1.78527469435511       -0.06179918956482
H           -2.51712609419586        0.72156450057543        1.31807719801207
H           -1.10951128911185        0.47853155539267       -1.37722041375017
H           -0.81740884740493       -0.53582199156661        0.03695641499654
H           -0.07214803289031        1.44822942015810        1.32262612009774
H           -0.39774134973992        2.47667839423923       -0.07088591705089
H            1.96692857127278        2.05603885996850       -0.00605087983165
H            1.30328381932588        1.18798432860681       -1.38872251529435
H            1.35353779516604       -0.92869457699643       -0.09775244527541
H            1.93082983763126       -0.05940806468588        1.32357674433420
H            3.39467091469837       -0.26493304345343       -1.34394407998499
H            3.98927254682511        0.58362108032414        0.08197929248672
H            5.00408569384834       -1.68166554545885       -0.09017695709703
H            3.39759232863244       -2.41154737035603       -0.06644475806754
H            3.99987294858080       -1.56207338637872        1.35627423452888
29
 energy: -29.485159634805 gnorm: 0.002130519830 xtb: 6.6.1 (8d0f1dd)
C           -3.39741840084322       -1.62724453816387        0.16874237830203
C           -3.57167884563325       -0.19312012998978       -0.32193300301331
C           -2.51288052678717        0.76477304674510        0.22671127051245
C           -1.10692209932016        0.46101229478936       -0.28528019708105
C           -0.08534279087518        1.47176074931177        0.23088327231505
C            1.32755912192450        1.21835547768221       -0.29758713878790
C            1.94660866736863       -0.07342420222308        0.23169380385756
C            3.38294250286660       -0.25800778190161       -0.25152694868536
C            3.98762533924870       -1.55770517802857        0.26846585220964
H           -3.38814857045921       -1.65837036477795        1.25606244626388
H           -2.46779124182860       -2.05568792152846       -0.19625357567138
H           -4.21679393228866       -2.24829001312682       -0.18590154204689
H           -4.55736550434935        0.16458931832750       -0.01618664652399
H           -3.53816861702612       -0.17782462303592       -1.41346102985468
H           -2.78000467169159        1.78481016874250       -0.06032158392229
H           -2.51614135184321        0.71897754992537        1.31818876798087
H           -1.10899365125817        0.47665003542650       -1.37762701482646
H           -0.81712358368613       -0.53845979272087        0.03605299250439
H           -0.07161998793221        1.44509964042810        1.32288718522097
H           -0.39849677726608        2.47453029842773       -0.06959697546193
H            1.96666503595129        2.05583015977785       -0.00774554249416
H            1.30274183556602        1.18605319862925       -1.38922300377499
H            1.35583008503910       -0.92958571712271       -0.09712396825220
H            1.93201170749625       -0.05906617583351        1.32391848543487
H            3.39655143833707       -0.26230601928396       -1.34356489883295
H            3.99003203794619        0.58578129139703        0.08314000398156
H            5.00703122046079       -1.67881106156698       -0.08943903816916
H            3.40108443299622       -2.40987990558607       -0.06796544601906
H            4.00132912788695       -1.56110580472012        1.35610409483447
29
 energy: -29.485189450366 gnorm: 0.000709487125 xtb: 6.6.1 (8d0f1dd)
C           -3.41725629425582       -1.62311992650375        0.17028033040342
C           -3.57526081766626       -0.18959015242680       -0.32498238239527
C           -2.51122269655016        0.75951550733290        0.22675351172576
C           -1.10619124228264        0.45304592988438       -0.28567891847009
C           -0.08428731743155        1.46297769275527        0.23136524721810
C            1.32763381531866        1.21446482698242       -0.29946480904371
C            1.95288761637837       -0.07318599629420        0.23190757688794
C            3.39026010085667       -0.25261127163942       -0.24932655840680
C            3.99784508685348       -1.55079639163086        0.26770834821278
H           -3.39773500979952       -1.64944725359134        1.25787593676787
H           -2.49726777009019       -2.06697005958633       -0.20169940660712
H           -4.24912377698798       -2.23483115698972       -0.17249706121104
H           -4.55968204060486        0.17892801126943       -0.02584753847189
H           -3.53655266655298       -0.17729527074564       -1.41679458102156
H           -2.77327438999144        1.78294836042930       -0.05497895253521
H           -2.51453942066023        0.70875063623695        1.31844587305702
H           -1.10817970089383        0.47022869480425       -1.37851739247870
H           -0.81727188653299       -0.54790922408417        0.03374329809993
H           -0.06895279253318        1.43335230553946        1.32371177971117
H           -0.40055253090035        2.46664290946325       -0.06505090391560
H            1.96461695910275        2.05578076919915       -0.01386371176488
H            1.30081679778595        1.17924565155848       -1.39139291385205
H            1.36510747092365       -0.93251501055226       -0.09557950782850
H            1.93741367570538       -0.05702907729966        1.32459398052260
H            3.40559525058869       -0.25341298764328       -1.34186891939911
H            3.99433302197839        0.59290690625524        0.08823763720988
H            5.01926744381794       -1.66731387936944       -0.08674134199249
H            3.41637310793549       -2.40473576254569       -0.07383303090834
H            4.00832200648852       -1.55869078080794        1.35560741048591
29
 energy: -29.485200623417 gnorm: 0.001194704608 xtb: 6.6.1 (8d0f1dd)
C           -3.43055820010187       -1.62016285231375        0.17121204198941
C           -3.57868209535619       -0.18727090677269       -0.32711818525782
C           -2.51147165192694        0.75671015311048        0.22691952808468
C           -1.10678583432485        0.44829423579265       -0.28550350234790
C           -0.08376140477710        1.45720449218852        0.23170270444821
C            1.32783721673951        1.21169710546451       -0.30102561952393
C            1.95759101489727       -0.07328108125526        0.23162325802505
C            3.39599789796092       -0.24948257266398       -0.24790910460956
C            4.00598587785186       -1.54670511092738        0.26734172181971
H           -3.40533565652902       -1.64366962076606        1.25879056992609
H           -2.51653872246586       -2.07307834292394       -0.20434652431870
H           -4.26938662864092       -2.22613695469593       -0.16474138814702
H           -4.56190198549163        0.18793982535444       -0.03167105135360
H           -3.53700520499266       -0.17695239500890       -1.41897916296112
H           -2.77086059324173        1.78167499955992       -0.05204504061179
H           -2.51580075227622        0.70264881944396        1.31855586759001
H           -1.10894391861259        0.46632451831186       -1.37844471219861
H           -0.81913954519830       -0.55329784914015        0.03349166404554
H           -0.06678821034068        1.42586420661058        1.32410944897665
H           -0.40103324765457        2.46140938939755       -0.06251910738590
H            1.96241812493130        2.05574481287270       -0.01739536818834
H            1.29981890479242        1.17504456037820       -1.39300536679872
H            1.37203354612110       -0.93444683638294       -0.09532983510526
H            1.94172111882119       -0.05563486048151        1.32438325502305
H            3.41328347206632       -0.24850177397740       -1.34058137490256
H            3.99819524320935        0.59665642693545        0.09203471077061
H            5.02881406773650       -1.65894766298476       -0.08505265699120
H            3.42881797649346       -2.40228339670122       -0.07772790624675
H            4.01460119030990       -1.55802732842500        1.35534413624977
29
 energy: -29.485206142472 gnorm: 0.000557811684 xtb: 6.6.1 (8d0f1dd)
C           -3.43453696803857       -1.61921294057243        0.17137563201467
C           -3.58068692614270       -0.18634385082410       -0.32759132969835
C           -2.51266563965081        0.75687489893273        0.22700021693603
C           -1.10790078731964        0.44715188117773       -0.28503886120441
C           -0.08386967127640        1.45545549749207        0.23180913966639
C            1.32802295121435        1.21030769121496       -0.30159033344162
C            1.95930388143167       -0.07402047531390        0.23125350506924
C            3.39835656755026       -0.24874712043051       -0.24762144146159
C            4.00992780334785       -1.54574048003837        0.26727805441582
H           -3.40931156813917       -1.64222743323489        1.25884872271534
H           -2.52140285667147       -2.07347787934726       -0.20388484983758
H           -4.27416175890157       -2.22380432723939       -0.16426230272429
H           -4.56332310403197        0.19014067071343       -0.03260160943216
H           -3.53850200743517       -0.17648271246244       -1.41931199805440
H           -2.77141045088411        1.78177539929459       -0.05203075738657
H           -2.51794532181140        0.70236099774259        1.31845771291991
H           -1.11020616008476        0.46498316698192       -1.37781788238896
H           -0.82134872082064       -0.55443062085046        0.03452175341141
H           -0.06608835935608        1.42385029562143        1.32406394766852
H           -0.40057297402774        2.45974516288724       -0.06218324564477
H            1.96140119561048        2.05505508089584       -0.01796845811674
H            1.29968922968572        1.17361865982891       -1.39343438118849
H            1.37483384574034       -0.93570091685865       -0.09581974109029
H            1.94334190733415       -0.05599798509923        1.32384320315828
H            3.41663658323026       -0.24753866393751       -1.34013872218629
H            3.99968667316496        0.59744780007682        0.09329003529696
H            5.03319868089966       -1.65554019571083       -0.08458698330196
H            3.43472925910806       -2.40207305283291       -0.07897117048693
H            4.01792669627442       -1.55809454810741        1.35522514437282
29
 energy: -29.485211092739 gnorm: 0.000334065068 xtb: 6.6.1 (8d0f1dd)
C           -3.43731726118402       -1.61831528382653        0.17141676363949
C           -3.58286863285919       -0.18515705395876       -0.32762041268754
C           -2.51422971297271        0.75789510063061        0.22698181468467
C           -1.10935172465959        0.44634608127289       -0.28429926734822
C           -0.08409615443515        1.45387314721716        0.23198136071523
C            1.32808944368167        1.20839324189283       -0.30191680923493
C            1.96055534030524       -0.07559524533710        0.23081091967870
C            3.40030054703443       -0.24829159552083       -0.24749964526351
C            4.01413550991704       -1.54480007630446        0.26715717766878
H           -3.41417626191896       -1.64139609250141        1.25892807784899
H           -2.52347243825810       -2.07238987130365       -0.20230149517051
H           -4.27646541357065       -2.22254075852544       -0.16602764528792
H           -4.56517559725358        0.19165327806450       -0.03237058485054
H           -3.54074462409042       -0.17540760280323       -1.41924762668845
H           -2.77223230397213        1.78252091837458       -0.05322510602444
H           -2.52051629754958        0.70421347166349        1.31835603843330
H           -1.11162262946835        0.46331192527219       -1.37696041198439
H           -0.82421388758532       -0.55519335612840        0.03629801821327
H           -0.06574365982267        1.42245726456783        1.32411005335249
H           -0.39986640134308        2.45824963196717       -0.06222520524026
H            1.96073793973261        2.05345830734479       -0.01813594913256
H            1.29950018740556        1.17188410681840       -1.39364842583787
H            1.37735208617132       -0.93782509662565       -0.09674081756302
H            1.94436121943294       -0.05778132719928        1.32326982614091
H            3.41944453234966       -0.24684906902728       -1.33987002548115
H            4.00034284951005        0.59832146922356        0.09423695697347
H            5.03784812225030       -1.65178930329577       -0.08421345466272
H            3.44109108271429       -2.40204670533073       -0.08017740355396
H            4.02145614043838       -1.55786550662152        1.35504627866270
