 Entering Gaussian System
 *********************************************
 Gaussian 98:
 frequency output generated by the xtb code
 *********************************************
                         Standard orientation:
 --------------------------------------------------------------------
  Center     Atomic     Atomic              Coordinates (Angstroms)
  Number     Number      Type              X           Y           Z
 --------------------------------------------------------------------
    1          6             0       -3.795111    0.360108    0.000239
    2          6             0       -2.533543   -0.494735   -0.000102
    3          6             0       -1.267024    0.358047   -0.001302
    4          6             0        0.000002   -0.493822    0.000538
    5          6             0        1.267033    0.358041    0.002434
    6          6             0        2.533547   -0.494745   -0.000517
    7          6             0        3.795117    0.360094   -0.001235
    8          1             0       -3.823284    0.997990    0.881110
    9          1             0       -3.825504    0.995638   -0.882254
   10          1             0       -4.683595   -0.267178    0.002203
   11          1             0       -2.532347   -1.139696    0.881702
   12          1             0       -2.533461   -1.140771   -0.881114
   13          1             0       -1.267574    1.002372   -0.883831
   14          1             0       -1.268069    1.005453    0.878975
   15          1             0        0.001295   -1.140058   -0.880719
   16          1             0       -0.001295   -1.140229    0.881663
   17          1             0        1.268163    1.001589    0.885524
   18          1             0        1.267504    1.006221   -0.877276
   19          1             0        2.534238   -1.141567    0.879915
   20          1             0        2.531572   -1.138920   -0.882896
   21          1             0        4.683588   -0.267185   -0.007178
   22          1             0        3.827622    0.993016    0.883053
   23          1             0        3.821195    1.000575   -0.880286
 --------------------------------------------------------------------
     1 basis functions        1 primitive gaussians
     1 alpha electrons        1 beta electrons
 
 Harmonic frequencies (cm**-1), IR intensities (km*mol⁻¹),
 Raman scattering activities (A**4/amu), Raman depolarization ratios,
 reduced masses (AMU), force constants (mDyne/A) and normal coordinates:
                      1                      2                      3
                        a                      a                      a 
 Frequencies --    58.4957                70.7680               102.5871
 Red. masses --     8.7058                 5.2064                 8.9996
 Frc consts  --     0.0000                 0.0000                 0.0000
 IR Inten    --     0.0045                 0.0000                 0.0879
 Raman Activ --     0.0000                 0.0000                 0.0000
 Depolar     --     0.0000                 0.0000                 0.0000
 Atom AN      X      Y      Z        X      Y      Z        X      Y      Z
   1   6     0.00   0.00   0.41    -0.00  -0.00   0.21    -0.14  -0.41  -0.00
   2   6    -0.00  -0.00   0.08     0.00  -0.00  -0.38     0.12  -0.01   0.00
   3   6    -0.00  -0.00  -0.34    -0.00   0.00   0.07    -0.07   0.28   0.00
   4   6     0.00   0.00  -0.35     0.00   0.00   0.00     0.00   0.39   0.00
   5   6    -0.00   0.00  -0.34     0.00   0.00  -0.07     0.07   0.28  -0.00
   6   6     0.00   0.00   0.08    -0.00  -0.00   0.38    -0.12  -0.01  -0.00
   7   6     0.00  -0.00   0.41     0.00  -0.00  -0.21     0.14  -0.41   0.00
   8   1     0.08   0.01   0.11    -0.00  -0.18   0.19    -0.10  -0.12  -0.00
   9   1    -0.08  -0.01   0.11    -0.00   0.18   0.19    -0.10  -0.12  -0.00
  10   1     0.00   0.00   0.21     0.00  -0.00  -0.06     0.02  -0.20  -0.00
  11   1     0.08   0.02   0.04     0.01  -0.15  -0.22     0.09  -0.00   0.00
  12   1    -0.08  -0.02   0.04    -0.01   0.15  -0.22     0.09  -0.01   0.00
  13   1    -0.04  -0.05  -0.14     0.04   0.08   0.08    -0.05   0.08   0.00
  14   1     0.04   0.05  -0.14    -0.04  -0.08   0.08    -0.05   0.08   0.00
  15   1     0.00  -0.01  -0.09    -0.01   0.00  -0.00    -0.00   0.11   0.00
  16   1     0.00   0.01  -0.09     0.01   0.00   0.00     0.00   0.11  -0.00
  17   1    -0.04   0.05  -0.14    -0.04   0.08  -0.08     0.05   0.08  -0.00
  18   1     0.04  -0.05  -0.14     0.04  -0.08  -0.08     0.05   0.08  -0.00
  19   1    -0.08   0.02   0.04     0.01   0.15   0.22    -0.09  -0.01  -0.00
  20   1     0.08  -0.02   0.04    -0.01  -0.15   0.22    -0.09  -0.00  -0.00
  21   1     0.00  -0.00   0.21    -0.00  -0.00   0.06    -0.02  -0.20   0.00
  22   1    -0.08   0.01   0.11     0.00   0.18  -0.19     0.10  -0.12   0.00
  23   1     0.08  -0.01   0.11     0.00  -0.18  -0.19     0.10  -0.12   0.00
                      4                      5                      6
                        a                      a                      a 
 Frequencies --   128.6719               133.6232               232.9412
 Red. masses --     7.6410                 6.0520                 2.0332
 Frc consts  --     0.0000                 0.0000                 0.0000
 IR Inten    --     0.0000                 0.0008                 0.0000
 Raman Activ --     0.0000                 0.0000                 0.0000
 Depolar     --     0.0000                 0.0000                 0.0000
 Atom AN      X      Y      Z        X      Y      Z        X      Y      Z
   1   6    -0.00  -0.00   0.20     0.00   0.00   0.12     0.00  -0.00  -0.03
   2   6     0.00   0.00  -0.12    -0.00  -0.00  -0.25     0.00   0.00   0.18
   3   6    -0.00   0.00  -0.50     0.00  -0.00  -0.14     0.00   0.00  -0.12
   4   6    -0.00   0.00   0.00    -0.00  -0.00   0.51    -0.00   0.00   0.00
   5   6     0.00   0.00   0.50     0.00   0.00  -0.14     0.00  -0.00   0.12
   6   6    -0.00   0.00   0.12    -0.00   0.00  -0.25    -0.00  -0.00  -0.18
   7   6     0.00  -0.00  -0.20     0.00  -0.00   0.13    -0.00   0.00   0.03
   8   1     0.08   0.02   0.05    -0.01  -0.12   0.13    -0.21  -0.23   0.16
   9   1    -0.08  -0.02   0.05     0.01   0.12   0.13     0.21   0.23   0.15
  10   1     0.00  -0.00   0.16    -0.00   0.00  -0.06    -0.00  -0.00  -0.38
  11   1     0.07   0.02  -0.02     0.02  -0.07  -0.12     0.00   0.06   0.09
  12   1    -0.07  -0.02  -0.02    -0.02   0.07  -0.12    -0.00  -0.06   0.09
  13   1     0.01  -0.12  -0.23     0.07  -0.08  -0.10    -0.02  -0.07  -0.09
  14   1    -0.01   0.12  -0.23    -0.07   0.08  -0.10     0.02   0.07  -0.09
  15   1     0.10   0.00   0.00    -0.00  -0.19   0.29     0.02  -0.00   0.00
  16   1    -0.10   0.00  -0.00    -0.00   0.19   0.29    -0.02   0.00   0.00
  17   1    -0.01  -0.12   0.23     0.07   0.08  -0.10     0.02  -0.07   0.09
  18   1     0.01   0.12   0.23    -0.07  -0.08  -0.10    -0.02   0.07   0.09
  19   1     0.07  -0.02   0.02    -0.02  -0.07  -0.12     0.00  -0.06  -0.10
  20   1    -0.07   0.02   0.02     0.02   0.07  -0.12    -0.00   0.06  -0.10
  21   1    -0.00  -0.00  -0.16    -0.00   0.00  -0.06     0.00  -0.00   0.39
  22   1     0.08  -0.02  -0.05     0.01  -0.12   0.12    -0.21   0.24  -0.16
  23   1    -0.08   0.02  -0.05    -0.01   0.12   0.13     0.21  -0.24  -0.16
                      7                      8                      9
                        a                      a                      a 
 Frequencies --   234.0261               249.8336               306.4113
 Red. masses --     2.3021                 8.6021                 9.7357
 Frc consts  --     0.0000                 0.0000                 0.0000
 IR Inten    --     0.0130                 0.0020                 0.0366
 Raman Activ --     0.0000                 0.0000                 0.0000
 Depolar     --     0.0000                 0.0000                 0.0000
 Atom AN      X      Y      Z        X      Y      Z        X      Y      Z
   1   6     0.00   0.00  -0.04     0.19   0.22  -0.00     0.47  -0.03  -0.00
   2   6    -0.00  -0.00   0.20    -0.15  -0.30  -0.00     0.36  -0.10   0.00
   3   6    -0.00  -0.00  -0.08    -0.11  -0.36   0.00     0.15   0.09   0.00
   4   6     0.00  -0.00  -0.14     0.10   0.00  -0.00    -0.00   0.06  -0.00
   5   6    -0.00   0.00  -0.08    -0.11   0.36   0.00    -0.15   0.09  -0.00
   6   6    -0.00   0.00   0.20    -0.15   0.30  -0.00    -0.36  -0.10   0.00
   7   6     0.00  -0.00  -0.04     0.19  -0.22  -0.00    -0.47  -0.03   0.00
   8   1    -0.22  -0.23   0.15     0.15   0.07  -0.00     0.17  -0.01  -0.00
   9   1     0.22   0.24   0.15     0.15   0.07   0.00     0.17  -0.01   0.00
  10   1    -0.00   0.00  -0.40    -0.03   0.19   0.00     0.11   0.03   0.00
  11   1    -0.00   0.06   0.10    -0.09  -0.08   0.00     0.12  -0.03   0.00
  12   1     0.00  -0.06   0.10    -0.09  -0.08  -0.00     0.12  -0.03  -0.00
  13   1    -0.04  -0.04  -0.05    -0.06  -0.10   0.00     0.03   0.02  -0.00
  14   1     0.03   0.04  -0.05    -0.06  -0.10  -0.00     0.03   0.02   0.00
  15   1     0.00   0.02  -0.05     0.09   0.00  -0.00    -0.00   0.02  -0.00
  16   1     0.00  -0.02  -0.05     0.09  -0.00  -0.00     0.00   0.02   0.00
  17   1    -0.04   0.04  -0.05    -0.06   0.10   0.00    -0.03   0.02   0.00
  18   1     0.03  -0.04  -0.05    -0.06   0.10  -0.00    -0.03   0.02  -0.00
  19   1     0.00   0.06   0.10    -0.09   0.08  -0.00    -0.12  -0.03   0.00
  20   1    -0.00  -0.06   0.10    -0.09   0.08   0.00    -0.12  -0.03  -0.00
  21   1    -0.00   0.00  -0.39    -0.03  -0.19   0.00    -0.11   0.03  -0.00
  22   1     0.21  -0.23   0.15     0.14  -0.07  -0.00    -0.17  -0.01  -0.00
  23   1    -0.21   0.23   0.15     0.15  -0.07  -0.00    -0.17  -0.01   0.00
                     10                     11                     12
                        a                      a                      a 
 Frequencies --   418.9556               479.9264               768.7146
 Red. masses --     8.6363                 9.0699                 1.6056
 Frc consts  --     0.0000                 0.0000                 0.0000
 IR Inten    --     0.2841                 0.0910                14.2700
 Raman Activ --     0.0000                 0.0000                 0.0000
 Depolar     --     0.0000                 0.0000                 0.0000
 Atom AN      X      Y      Z        X      Y      Z        X      Y      Z
   1   6     0.11   0.08  -0.00    -0.31   0.05   0.00    -0.00   0.00  -0.00
   2   6    -0.17  -0.33   0.00    -0.13   0.14  -0.00    -0.00  -0.00  -0.07
   3   6    -0.32  -0.01  -0.00     0.24  -0.27   0.00     0.00  -0.00  -0.12
   4   6    -0.00   0.42   0.00     0.45   0.00  -0.00     0.00  -0.00  -0.13
   5   6     0.32  -0.01   0.00     0.24   0.27   0.00     0.00   0.00  -0.12
   6   6     0.17  -0.33  -0.00    -0.13  -0.14  -0.00    -0.00   0.00  -0.07
   7   6    -0.11   0.08   0.00    -0.31  -0.05   0.00    -0.00  -0.00  -0.00
   8   1     0.12   0.03  -0.00    -0.15   0.01   0.00     0.05  -0.05   0.04
   9   1     0.12   0.03   0.00    -0.15   0.01  -0.00    -0.05   0.05   0.04
  10   1    -0.06   0.15   0.00    -0.03  -0.07  -0.00     0.00  -0.00   0.02
  11   1    -0.06  -0.09   0.00    -0.08   0.04  -0.00     0.04   0.18   0.11
  12   1    -0.06  -0.09  -0.00    -0.08   0.04   0.00    -0.04  -0.18   0.11
  13   1    -0.17  -0.00   0.00     0.09  -0.07   0.00    -0.02   0.28   0.18
  14   1    -0.17  -0.00  -0.00     0.09  -0.07  -0.00     0.02  -0.28   0.18
  15   1    -0.00   0.11   0.00     0.21   0.00  -0.00    -0.00  -0.32   0.20
  16   1     0.00   0.11  -0.00     0.21  -0.00  -0.00    -0.00   0.32   0.20
  17   1     0.17  -0.00  -0.00     0.09   0.07   0.00    -0.02  -0.28   0.18
  18   1     0.17  -0.00   0.00     0.09   0.07  -0.00     0.02   0.28   0.18
  19   1     0.06  -0.09   0.00    -0.08  -0.04   0.00    -0.04   0.18   0.11
  20   1     0.06  -0.09  -0.00    -0.08  -0.04  -0.00     0.04  -0.18   0.11
  21   1     0.06   0.15  -0.00    -0.03   0.07  -0.00     0.00   0.00   0.02
  22   1    -0.12   0.03  -0.00    -0.15  -0.01  -0.00    -0.05  -0.05   0.04
  23   1    -0.12   0.03   0.00    -0.15  -0.01   0.00     0.05   0.05   0.04
                     13                     14                     15
                        a                      a                      a 
 Frequencies --   777.5738               812.2653               876.1660
 Red. masses --     1.8681                 2.3131                 2.6297
 Frc consts  --     0.0000                 0.0000                 0.0000
 IR Inten    --     0.0000                 3.5422                 0.0000
 Raman Activ --     0.0000                 0.0000                 0.0000
 Depolar     --     0.0000                 0.0000                 0.0000
 Atom AN      X      Y      Z        X      Y      Z        X      Y      Z
   1   6     0.00  -0.00   0.02    -0.00   0.00   0.05    -0.00   0.00   0.11
   2   6     0.00   0.00   0.15     0.00  -0.00   0.19     0.00  -0.00   0.11
   3   6     0.00   0.00   0.13     0.00  -0.00  -0.03     0.00   0.00  -0.22
   4   6    -0.00   0.00   0.00     0.00   0.00  -0.20     0.00  -0.00  -0.00
   5   6    -0.00   0.00  -0.13     0.00   0.00  -0.03     0.00  -0.00   0.22
   6   6    -0.00   0.00  -0.15     0.00  -0.00   0.19    -0.00   0.00  -0.11
   7   6     0.00   0.00  -0.02    -0.00  -0.00   0.05    -0.00   0.00  -0.11
   8   1    -0.11   0.10  -0.07    -0.17   0.13  -0.09    -0.20   0.15  -0.09
   9   1     0.11  -0.10  -0.07     0.17  -0.13  -0.09     0.20  -0.15  -0.09
  10   1    -0.00   0.00  -0.05    -0.00   0.00  -0.09    -0.00   0.00  -0.11
  11   1    -0.03  -0.29  -0.17     0.05  -0.26  -0.15     0.17  -0.12  -0.06
  12   1     0.03   0.29  -0.18    -0.05   0.26  -0.15    -0.17   0.12  -0.06
  13   1    -0.05  -0.25  -0.15    -0.14   0.04   0.02    -0.05   0.23   0.11
  14   1     0.05   0.25  -0.15     0.14  -0.04   0.02     0.05  -0.23   0.11
  15   1    -0.10  -0.00  -0.00    -0.00  -0.27   0.15     0.20   0.00   0.00
  16   1     0.10  -0.00   0.00    -0.00   0.27   0.15    -0.20   0.00  -0.00
  17   1     0.05  -0.25   0.15    -0.14  -0.04   0.02     0.05   0.23  -0.11
  18   1    -0.05   0.25   0.15     0.14   0.04   0.02    -0.05  -0.23  -0.11
  19   1    -0.03   0.29   0.18    -0.05  -0.26  -0.15     0.17   0.12   0.06
  20   1     0.03  -0.29   0.17     0.05   0.26  -0.15    -0.17  -0.12   0.06
  21   1     0.00   0.00   0.05    -0.00  -0.00  -0.09     0.00  -0.00   0.11
  22   1    -0.11  -0.10   0.07     0.17   0.13  -0.09    -0.20  -0.15   0.09
  23   1     0.11   0.10   0.07    -0.17  -0.13  -0.09     0.20   0.15   0.09
                     16                     17                     18
                        a                      a                      a 
 Frequencies --   930.6301               950.2565               952.3093
 Red. masses --     6.5770                 2.4959                 5.2281
 Frc consts  --     0.0000                 0.0000                 0.0000
 IR Inten    --     4.1898                 1.6836                 2.8175
 Raman Activ --     0.0000                 0.0000                 0.0000
 Depolar     --     0.0000                 0.0000                 0.0000
 Atom AN      X      Y      Z        X      Y      Z        X      Y      Z
   1   6    -0.27  -0.05  -0.00    -0.01  -0.00   0.14     0.25   0.09   0.00
   2   6    -0.08  -0.23   0.00    -0.00  -0.00  -0.05     0.04   0.16  -0.00
   3   6     0.17   0.27   0.00     0.00   0.01  -0.14    -0.15  -0.24  -0.00
   4   6     0.19  -0.00  -0.00     0.00  -0.00   0.22     0.00   0.18   0.00
   5   6     0.17  -0.27  -0.00    -0.00   0.00  -0.14     0.15  -0.24  -0.00
   6   6    -0.08   0.23   0.00     0.00  -0.00  -0.05    -0.04   0.16  -0.00
   7   6    -0.27   0.05  -0.00     0.00  -0.00   0.14    -0.25   0.09   0.00
   8   1     0.15   0.02  -0.01    -0.19   0.14  -0.08    -0.18  -0.01   0.01
   9   1     0.15   0.02   0.01     0.20  -0.14  -0.08    -0.17  -0.02  -0.02
  10   1    -0.29   0.29   0.00    -0.01   0.01  -0.10     0.30  -0.31  -0.00
  11   1     0.07  -0.06  -0.00     0.25   0.04   0.01    -0.10   0.04   0.00
  12   1     0.07  -0.06   0.00    -0.25  -0.04   0.01    -0.11   0.04  -0.00
  13   1     0.06   0.07  -0.00     0.20   0.12   0.05    -0.10  -0.06   0.00
  14   1     0.06   0.07  -0.00    -0.20  -0.12   0.06    -0.11  -0.06  -0.00
  15   1     0.01  -0.00   0.00     0.00   0.19  -0.09    -0.00   0.04   0.00
  16   1     0.01   0.00   0.00     0.00  -0.19  -0.09     0.00   0.04  -0.00
  17   1     0.06  -0.07  -0.00     0.20  -0.12   0.05     0.11  -0.06  -0.00
  18   1     0.06  -0.07  -0.00    -0.20   0.12   0.06     0.11  -0.06   0.00
  19   1     0.07   0.06   0.00    -0.25   0.04   0.01     0.10   0.04   0.00
  20   1     0.07   0.06  -0.00     0.25  -0.04   0.01     0.11   0.04  -0.00
  21   1    -0.29  -0.29   0.00     0.00   0.00  -0.10    -0.30  -0.31  -0.00
  22   1     0.15  -0.02   0.01     0.19   0.14  -0.08     0.18  -0.01   0.01
  23   1     0.15  -0.02  -0.01    -0.20  -0.14  -0.08     0.18  -0.01  -0.02
                     19                     20                     21
                        a                      a                      a 
 Frequencies --  1013.4432              1050.2139              1088.0502
 Red. masses --     1.7681                10.5486                 8.0424
 Frc consts  --     0.0000                 0.0000                 0.0000
 IR Inten    --     0.0000                 0.1569                 1.7762
 Raman Activ --     0.0000                 0.0000                 0.0000
 Depolar     --     0.0000                 0.0000                 0.0000
 Atom AN      X      Y      Z        X      Y      Z        X      Y      Z
   1   6    -0.00   0.00   0.11    -0.22   0.20  -0.00     0.16  -0.32   0.00
   2   6     0.00  -0.00  -0.13     0.20  -0.23   0.00    -0.27   0.32  -0.00
   3   6     0.00  -0.00   0.07     0.34  -0.19   0.00    -0.01  -0.10   0.00
   4   6    -0.00   0.00   0.00     0.00   0.45   0.00    -0.11   0.00  -0.00
   5   6    -0.00   0.00  -0.07    -0.34  -0.19   0.00    -0.01   0.10   0.00
   6   6     0.00  -0.00   0.13    -0.20  -0.23  -0.00    -0.27  -0.32  -0.00
   7   6     0.00   0.00  -0.11     0.22   0.20   0.00     0.16   0.32   0.00
   8   1    -0.13   0.10  -0.05    -0.12   0.05   0.00     0.22  -0.06  -0.01
   9   1     0.13  -0.10  -0.05    -0.12   0.05  -0.00     0.22  -0.06   0.01
  10   1    -0.00   0.00  -0.07    -0.02   0.00   0.00    -0.08   0.10   0.00
  11   1     0.20   0.10   0.04     0.01  -0.07  -0.00    -0.04   0.08  -0.00
  12   1    -0.20  -0.10   0.04     0.01  -0.07   0.00    -0.04   0.08   0.00
  13   1     0.30  -0.05  -0.02     0.05  -0.05  -0.00     0.14  -0.02   0.00
  14   1    -0.30   0.05  -0.02     0.05  -0.05   0.00     0.14  -0.02  -0.00
  15   1    -0.33   0.00  -0.00     0.00   0.12  -0.00     0.06   0.00   0.00
  16   1     0.33   0.00   0.00    -0.00   0.12   0.00     0.06  -0.00   0.00
  17   1    -0.30  -0.05   0.02    -0.05  -0.05   0.00     0.14   0.02   0.00
  18   1     0.30   0.05   0.02    -0.05  -0.05  -0.00     0.14   0.02  -0.00
  19   1     0.20  -0.10  -0.04    -0.01  -0.07  -0.00    -0.04  -0.08   0.00
  20   1    -0.20   0.10  -0.04    -0.01  -0.07   0.00    -0.04  -0.08  -0.00
  21   1     0.00   0.00   0.07     0.02   0.00  -0.00    -0.08  -0.10   0.00
  22   1    -0.13  -0.10   0.05     0.12   0.05   0.00     0.22   0.06   0.01
  23   1     0.13   0.10   0.05     0.12   0.05  -0.00     0.22   0.06  -0.01
                     22                     23                     24
                        a                      a                      a 
 Frequencies --  1100.3189              1113.2851              1114.0746
 Red. masses --     8.8310                 6.8158                 8.5315
 Frc consts  --     0.0000                 0.0000                 0.0000
 IR Inten    --     2.0225                 2.7349                 0.0294
 Raman Activ --     0.0000                 0.0000                 0.0000
 Depolar     --     0.0000                 0.0000                 0.0000
 Atom AN      X      Y      Z        X      Y      Z        X      Y      Z
   1   6    -0.18   0.05   0.00    -0.13  -0.01   0.00    -0.17   0.21   0.00
   2   6     0.22   0.00   0.00     0.24   0.19  -0.00     0.35  -0.09  -0.00
   3   6     0.15  -0.31   0.00    -0.35  -0.09  -0.00    -0.30   0.04  -0.00
   4   6    -0.55  -0.00  -0.00     0.20   0.00   0.00     0.00  -0.31  -0.00
   5   6     0.15   0.31   0.00    -0.35   0.09   0.00     0.30   0.04   0.00
   6   6     0.22  -0.00  -0.00     0.24  -0.19  -0.00    -0.35  -0.09   0.00
   7   6    -0.18  -0.05   0.00    -0.13   0.01   0.00     0.17   0.21  -0.00
   8   1     0.01   0.03  -0.01     0.06   0.02  -0.01    -0.10   0.05  -0.00
   9   1     0.01   0.03   0.01     0.06   0.02   0.01    -0.10   0.05   0.00
  10   1    -0.10   0.09   0.00    -0.11   0.12   0.00    -0.01   0.01  -0.00
  11   1     0.12  -0.01  -0.00     0.23   0.05   0.00     0.20  -0.02   0.00
  12   1     0.12  -0.01   0.00     0.23   0.05  -0.00     0.20  -0.02  -0.00
  13   1     0.15  -0.09  -0.01    -0.12  -0.02   0.00    -0.15  -0.00  -0.00
  14   1     0.15  -0.09   0.01    -0.12  -0.02  -0.00    -0.15  -0.00   0.00
  15   1    -0.18   0.00  -0.00     0.25   0.00   0.00    -0.00  -0.09   0.00
  16   1    -0.18  -0.00  -0.00     0.25   0.00   0.00     0.00  -0.09  -0.00
  17   1     0.15   0.09  -0.01    -0.12   0.02   0.00     0.15  -0.00   0.00
  18   1     0.15   0.09   0.01    -0.12   0.02  -0.00     0.15  -0.00  -0.00
  19   1     0.12   0.01   0.00     0.23  -0.05  -0.00    -0.20  -0.02   0.00
  20   1     0.12   0.01  -0.00     0.23  -0.05   0.00    -0.20  -0.02  -0.00
  21   1    -0.10  -0.09  -0.00    -0.11  -0.12  -0.00     0.01   0.01   0.00
  22   1     0.01  -0.03   0.01     0.06  -0.02   0.01     0.10   0.05  -0.00
  23   1     0.01  -0.03  -0.01     0.06  -0.02  -0.01     0.10   0.05   0.00
                     25                     26                     27
                        a                      a                      a 
 Frequencies --  1148.4346              1199.5516              1222.2334
 Red. masses --     8.4090                 6.6262                 4.9537
 Frc consts  --     0.0000                 0.0000                 0.0000
 IR Inten    --     1.7263                 0.5038                 0.0000
 Raman Activ --     0.0000                 0.0000                 0.0000
 Depolar     --     0.0000                 0.0000                 0.0000
 Atom AN      X      Y      Z        X      Y      Z        X      Y      Z
   1   6    -0.08  -0.16   0.00    -0.00   0.00   0.18    -0.00  -0.00  -0.24
   2   6     0.12   0.33  -0.00     0.00   0.00  -0.29     0.00   0.00   0.31
   3   6    -0.11  -0.36   0.00     0.00  -0.00   0.30    -0.00  -0.00  -0.17
   4   6    -0.00   0.27   0.00     0.00   0.00  -0.31    -0.00  -0.00   0.00
   5   6     0.11  -0.36  -0.00     0.00   0.00   0.30     0.00  -0.00   0.17
   6   6    -0.12   0.33   0.00    -0.00   0.00  -0.29    -0.00   0.00  -0.31
   7   6     0.08  -0.16  -0.00     0.00  -0.00   0.18     0.00  -0.00   0.24
   8   1     0.15  -0.00  -0.02    -0.14   0.12  -0.05     0.17  -0.14   0.06
   9   1     0.15  -0.00   0.02     0.14  -0.12  -0.05    -0.17   0.14   0.06
  10   1    -0.15   0.15   0.00    -0.00   0.00  -0.08     0.00   0.00   0.10
  11   1     0.14   0.08  -0.00     0.01   0.17   0.05     0.13  -0.17  -0.05
  12   1     0.14   0.08   0.00    -0.01  -0.17   0.05    -0.13   0.17  -0.05
  13   1    -0.03  -0.09   0.00     0.02  -0.18  -0.06     0.14   0.10   0.03
  14   1    -0.03  -0.09  -0.00    -0.02   0.18  -0.06    -0.14  -0.10   0.03
  15   1     0.00   0.06   0.01    -0.00  -0.18   0.06    -0.22  -0.00  -0.00
  16   1    -0.00   0.06  -0.01    -0.00   0.18   0.06     0.22  -0.00   0.00
  17   1     0.03  -0.09  -0.00     0.02   0.18  -0.06    -0.14   0.10  -0.03
  18   1     0.03  -0.09   0.00    -0.02  -0.18  -0.06     0.14  -0.10  -0.03
  19   1    -0.14   0.08  -0.00    -0.01   0.17   0.05     0.13   0.17   0.05
  20   1    -0.14   0.08   0.00     0.01  -0.17   0.05    -0.13  -0.17   0.05
  21   1     0.15   0.15  -0.00    -0.00  -0.00  -0.08    -0.00   0.00  -0.10
  22   1    -0.15  -0.00  -0.02     0.14   0.12  -0.05     0.17   0.15  -0.06
  23   1    -0.15  -0.00   0.02    -0.14  -0.12  -0.05    -0.16  -0.14  -0.06
                     28                     29                     30
                        a                      a                      a 
 Frequencies --  1248.5859              1259.4499              1275.0405
 Red. masses --     3.5594                 3.5131                 1.4097
 Frc consts  --     0.0000                 0.0000                 0.0000
 IR Inten    --     0.1598                 0.2193                 0.0000
 Raman Activ --     0.0000                 0.0000                 0.0000
 Depolar     --     0.0000                 0.0000                 0.0000
 Atom AN      X      Y      Z        X      Y      Z        X      Y      Z
   1   6    -0.05  -0.11  -0.00     0.00   0.00   0.19    -0.00  -0.00  -0.06
   2   6     0.12   0.16   0.00    -0.00  -0.00  -0.13     0.00   0.00  -0.10
   3   6     0.17  -0.11   0.00     0.00  -0.00  -0.16     0.00   0.00   0.06
   4   6     0.20  -0.00   0.00     0.00  -0.00   0.26     0.00   0.00  -0.00
   5   6     0.17   0.11  -0.00     0.00   0.00  -0.16    -0.00   0.00  -0.06
   6   6     0.12  -0.16   0.00    -0.00   0.00  -0.13    -0.00  -0.00   0.10
   7   6    -0.05   0.11  -0.00     0.00  -0.00   0.19     0.00  -0.00   0.06
   8   1     0.07   0.00  -0.02    -0.12   0.11  -0.04     0.04  -0.03   0.01
   9   1     0.07   0.00   0.02     0.12  -0.11  -0.04    -0.04   0.03   0.01
  10   1    -0.09   0.09   0.00    -0.00  -0.00  -0.07    -0.00   0.00  -0.00
  11   1    -0.13   0.03  -0.01    -0.32   0.06   0.02     0.30   0.05   0.01
  12   1    -0.13   0.03   0.01     0.32  -0.06   0.02    -0.30  -0.05   0.01
  13   1    -0.31  -0.02   0.00    -0.19   0.09   0.02    -0.35  -0.03  -0.01
  14   1    -0.31  -0.02  -0.00     0.19  -0.09   0.02     0.34   0.03  -0.01
  15   1    -0.36   0.00  -0.00    -0.00   0.14  -0.04    -0.23   0.00  -0.00
  16   1    -0.36  -0.00  -0.00    -0.00  -0.14  -0.04     0.23   0.00   0.00
  17   1    -0.31   0.02   0.00    -0.19  -0.09   0.02     0.35  -0.03   0.01
  18   1    -0.31   0.02  -0.00     0.19   0.09   0.02    -0.34   0.03   0.01
  19   1    -0.13  -0.03   0.01     0.32   0.06   0.01     0.30  -0.05  -0.01
  20   1    -0.13  -0.03  -0.01    -0.32  -0.06   0.02    -0.30   0.05  -0.01
  21   1    -0.09  -0.09   0.00    -0.00   0.00  -0.07     0.00   0.00   0.00
  22   1     0.07  -0.00   0.02     0.12   0.11  -0.04     0.04   0.03  -0.01
  23   1     0.07  -0.00  -0.02    -0.12  -0.11  -0.04    -0.04  -0.03  -0.01
                     31                     32                     33
                        a                      a                      a 
 Frequencies --  1290.7949              1293.6976              1300.2867
 Red. masses --     2.5029                 1.9347                 3.6829
 Frc consts  --     0.0000                 0.0000                 0.0000
 IR Inten    --     0.0001                 0.0664                 0.2810
 Raman Activ --     0.0000                 0.0000                 0.0000
 Depolar     --     0.0000                 0.0000                 0.0000
 Atom AN      X      Y      Z        X      Y      Z        X      Y      Z
   1   6    -0.00  -0.00  -0.10    -0.00  -0.00   0.05     0.04   0.11  -0.00
   2   6     0.00   0.00   0.01     0.00   0.00   0.12    -0.22  -0.08   0.00
   3   6     0.00   0.00   0.24     0.00   0.00  -0.06    -0.20  -0.05   0.00
   4   6     0.00  -0.00  -0.00     0.00  -0.00  -0.21     0.00   0.13  -0.00
   5   6    -0.00   0.00  -0.24    -0.00   0.00  -0.06     0.20  -0.05  -0.00
   6   6    -0.00   0.00  -0.01    -0.00   0.00   0.12     0.22  -0.08   0.00
   7   6     0.00  -0.00   0.10     0.00  -0.00   0.05    -0.04   0.11   0.00
   8   1     0.06  -0.06   0.02    -0.03   0.02  -0.00    -0.03  -0.02   0.03
   9   1    -0.06   0.06   0.02     0.03  -0.02  -0.00    -0.03  -0.02  -0.03
  10   1    -0.00   0.00   0.04    -0.00   0.00   0.01     0.10  -0.10   0.00
  11   1     0.26  -0.00   0.00    -0.27  -0.06  -0.01     0.28  -0.01   0.00
  12   1    -0.26   0.01   0.00     0.27   0.06  -0.02     0.28  -0.01  -0.00
  13   1     0.11  -0.12  -0.03     0.38   0.03   0.00     0.31  -0.00   0.01
  14   1    -0.11   0.12  -0.03    -0.38  -0.03   0.00     0.31  -0.00  -0.01
  15   1     0.48  -0.00   0.00    -0.00  -0.10   0.02     0.00   0.01   0.01
  16   1    -0.48  -0.00  -0.00    -0.00   0.10   0.02    -0.00   0.01  -0.01
  17   1    -0.11  -0.12   0.03     0.38  -0.03   0.00    -0.31  -0.00  -0.01
  18   1     0.11   0.12   0.03    -0.38   0.03   0.00    -0.32  -0.00   0.01
  19   1     0.26   0.01  -0.00     0.27  -0.06  -0.02    -0.28  -0.01   0.00
  20   1    -0.26  -0.00  -0.00    -0.27   0.06  -0.01    -0.29  -0.01  -0.00
  21   1     0.00   0.00  -0.04     0.00   0.00   0.01    -0.10  -0.10  -0.00
  22   1     0.06   0.06  -0.02     0.03   0.02  -0.00     0.03  -0.02   0.03
  23   1    -0.06  -0.06  -0.02    -0.03  -0.02  -0.00     0.03  -0.02  -0.03
                     34                     35                     36
                        a                      a                      a 
 Frequencies --  1345.0376              1373.3373              1379.6215
 Red. masses --     4.2215                 5.0148                 5.7933
 Frc consts  --     0.0000                 0.0000                 0.0000
 IR Inten    --     1.4402                 0.0011                 0.4675
 Raman Activ --     0.0000                 0.0000                 0.0000
 Depolar     --     0.0000                 0.0000                 0.0000
 Atom AN      X      Y      Z        X      Y      Z        X      Y      Z
   1   6    -0.03  -0.09   0.00     0.03   0.05  -0.00    -0.04  -0.01   0.00
   2   6     0.31  -0.00  -0.00    -0.30   0.03   0.00     0.19  -0.02  -0.00
   3   6    -0.01   0.08   0.00     0.29  -0.02   0.00    -0.33  -0.01  -0.00
   4   6    -0.27   0.00  -0.00     0.00  -0.05   0.00     0.38  -0.00   0.00
   5   6    -0.01  -0.08  -0.00    -0.29  -0.02  -0.00    -0.33   0.01   0.00
   6   6     0.31   0.00  -0.00     0.30   0.03  -0.00     0.19   0.02  -0.00
   7   6    -0.03   0.09   0.00    -0.03   0.05   0.00    -0.04   0.01   0.00
   8   1    -0.01   0.04  -0.04     0.01  -0.04   0.03     0.02   0.01  -0.01
   9   1    -0.01   0.04   0.04     0.01  -0.04  -0.03     0.02   0.01   0.01
  10   1    -0.10   0.10   0.00     0.06  -0.06   0.00    -0.01   0.00  -0.00
  11   1    -0.33   0.01   0.00     0.27  -0.01  -0.01    -0.14   0.01   0.01
  12   1    -0.33   0.01  -0.00     0.27  -0.01   0.01    -0.14   0.01  -0.01
  13   1    -0.00  -0.01  -0.02    -0.28   0.01   0.01     0.27   0.00   0.01
  14   1    -0.00  -0.01   0.02    -0.28   0.01  -0.01     0.27   0.00  -0.01
  15   1     0.33  -0.00   0.00     0.00   0.01  -0.02    -0.32   0.00  -0.00
  16   1     0.33   0.00   0.00    -0.00   0.01   0.02    -0.32  -0.00  -0.00
  17   1    -0.00   0.01  -0.02     0.28   0.01  -0.01     0.26  -0.00   0.01
  18   1    -0.00   0.01   0.02     0.28   0.01   0.01     0.27  -0.00  -0.01
  19   1    -0.33  -0.01  -0.00    -0.27  -0.01  -0.01    -0.14  -0.01  -0.01
  20   1    -0.33  -0.01   0.01    -0.27  -0.01   0.01    -0.14  -0.01   0.01
  21   1    -0.10  -0.10  -0.00    -0.06  -0.06  -0.00    -0.01  -0.00  -0.00
  22   1    -0.01  -0.04   0.04    -0.01  -0.04   0.03     0.02  -0.01   0.01
  23   1    -0.01  -0.04  -0.04    -0.01  -0.04  -0.03     0.02  -0.01  -0.01
                     37                     38                     39
                        a                      a                      a 
 Frequencies --  1416.0361              1416.3099              1495.8308
 Red. masses --     3.1930                 3.1736                 1.8725
 Frc consts  --     0.0000                 0.0000                 0.0000
 IR Inten    --     0.4516                 1.1862                 0.1366
 Raman Activ --     0.0000                 0.0000                 0.0000
 Depolar     --     0.0000                 0.0000                 0.0000
 Atom AN      X      Y      Z        X      Y      Z        X      Y      Z
   1   6     0.27  -0.16  -0.00     0.26  -0.16  -0.00    -0.00  -0.03  -0.00
   2   6    -0.06  -0.00   0.00    -0.06  -0.00   0.00    -0.00   0.14  -0.00
   3   6     0.01  -0.01   0.00    -0.01  -0.02  -0.00    -0.03   0.04  -0.00
   4   6     0.00   0.01  -0.00     0.04  -0.00   0.00     0.00  -0.18  -0.00
   5   6    -0.01  -0.01  -0.00    -0.01   0.02   0.00     0.03   0.04   0.00
   6   6     0.06  -0.00  -0.00    -0.06   0.00  -0.00     0.00   0.14   0.00
   7   6    -0.27  -0.16   0.00     0.26   0.16  -0.00     0.00  -0.03  -0.00
   8   1    -0.33   0.12  -0.10    -0.33   0.12  -0.10     0.00   0.09  -0.07
   9   1    -0.33   0.12   0.10    -0.33   0.12   0.10     0.01   0.09   0.07
  10   1    -0.20   0.30  -0.00    -0.20   0.30  -0.00     0.02  -0.03   0.00
  11   1     0.06   0.03   0.02     0.06   0.03   0.02     0.00  -0.27  -0.20
  12   1     0.06   0.03  -0.02     0.06   0.03  -0.02     0.00  -0.27   0.20
  13   1    -0.00  -0.01  -0.00     0.02  -0.01   0.00     0.02  -0.07  -0.05
  14   1    -0.00  -0.01   0.00     0.02  -0.01  -0.00     0.02  -0.07   0.05
  15   1    -0.00   0.00   0.00    -0.05   0.00  -0.00     0.00   0.34  -0.26
  16   1    -0.00   0.00  -0.00    -0.05  -0.00  -0.00    -0.00   0.34   0.26
  17   1     0.00  -0.01   0.00     0.02   0.01   0.00    -0.02  -0.07   0.05
  18   1     0.00  -0.01  -0.00     0.02   0.01  -0.00    -0.02  -0.07  -0.05
  19   1    -0.06   0.03   0.02     0.06  -0.03  -0.02    -0.00  -0.27  -0.20
  20   1    -0.06   0.03  -0.02     0.06  -0.03   0.02    -0.00  -0.27   0.20
  21   1     0.20   0.30   0.00    -0.20  -0.30  -0.00    -0.02  -0.03  -0.00
  22   1     0.33   0.12  -0.10    -0.33  -0.12   0.11    -0.01   0.09  -0.07
  23   1     0.33   0.11   0.10    -0.33  -0.12  -0.10    -0.00   0.09   0.07
                     40                     41                     42
                        a                      a                      a 
 Frequencies --  1496.5125              1498.9474              1500.9608
 Red. masses --     1.9451                 1.8272                 2.0245
 Frc consts  --     0.0000                 0.0000                 0.0000
 IR Inten    --     0.0000                 0.2736                 0.3264
 Raman Activ --     0.0000                 0.0000                 0.0000
 Depolar     --     0.0000                 0.0000                 0.0000
 Atom AN      X      Y      Z        X      Y      Z        X      Y      Z
   1   6     0.01   0.02   0.00    -0.00  -0.04  -0.00     0.01   0.03   0.00
   2   6     0.03  -0.00   0.00    -0.01   0.19  -0.00     0.03  -0.02   0.00
   3   6     0.00  -0.20   0.00    -0.02   0.01  -0.00    -0.02  -0.18   0.00
   4   6    -0.04  -0.00  -0.00     0.01   0.00   0.00     0.00  -0.14  -0.00
   5   6     0.00   0.20   0.00    -0.02  -0.01  -0.00     0.02  -0.18  -0.00
   6   6     0.03   0.00  -0.00    -0.01  -0.19  -0.00    -0.03  -0.02   0.00
   7   6     0.01  -0.02  -0.00    -0.00   0.04  -0.00    -0.01   0.03   0.00
   8   1    -0.02  -0.05   0.04     0.00   0.11  -0.08    -0.02  -0.08   0.06
   9   1    -0.02  -0.05  -0.04     0.00   0.11   0.08    -0.02  -0.08  -0.06
  10   1    -0.02   0.04  -0.00     0.02  -0.03   0.00    -0.03   0.05  -0.00
  11   1    -0.02  -0.01  -0.00     0.00  -0.37  -0.27    -0.02   0.04   0.03
  12   1    -0.02  -0.01   0.00     0.00  -0.37   0.28    -0.02   0.04  -0.03
  13   1     0.00   0.38   0.28     0.01   0.01   0.01     0.01   0.33   0.25
  14   1     0.00   0.38  -0.28     0.01   0.01  -0.01     0.01   0.33  -0.25
  15   1     0.03  -0.00   0.00     0.00  -0.00   0.00     0.00   0.23  -0.18
  16   1     0.03   0.00   0.00     0.00  -0.00  -0.00    -0.00   0.23   0.18
  17   1     0.00  -0.38   0.28     0.01  -0.01   0.01    -0.01   0.33  -0.25
  18   1     0.00  -0.38  -0.28     0.01  -0.01  -0.01    -0.01   0.33   0.25
  19   1    -0.02   0.01   0.00     0.00   0.37   0.28     0.02   0.04   0.03
  20   1    -0.02   0.01  -0.00     0.00   0.37  -0.27     0.02   0.04  -0.03
  21   1    -0.02  -0.04   0.00     0.02   0.03   0.00     0.03   0.05  -0.00
  22   1    -0.02   0.05  -0.04     0.00  -0.11   0.08     0.02  -0.08   0.06
  23   1    -0.02   0.05   0.04     0.00  -0.11  -0.08     0.02  -0.08  -0.06
                     43                     44                     45
                        a                      a                      a 
 Frequencies --  1504.0778              1504.8741              1504.9087
 Red. masses --     1.8028                 1.5324                 1.5325
 Frc consts  --     0.0000                 0.0000                 0.0000
 IR Inten    --     0.0496                 0.2705                 4.6021
 Raman Activ --     0.0000                 0.0000                 0.0000
 Depolar     --     0.0000                 0.0000                 0.0000
 Atom AN      X      Y      Z        X      Y      Z        X      Y      Z
   1   6    -0.01  -0.00   0.00    -0.00  -0.00  -0.11    -0.00   0.00  -0.18
   2   6    -0.01  -0.13   0.00    -0.00  -0.00  -0.02     0.00   0.00  -0.04
   3   6    -0.00   0.06  -0.00     0.00   0.00   0.00    -0.00  -0.00   0.00
   4   6     0.00  -0.17   0.00    -0.00  -0.00  -0.00     0.00   0.00   0.01
   5   6     0.00   0.06   0.00     0.00   0.00  -0.00    -0.00  -0.00   0.00
   6   6     0.01  -0.13  -0.00     0.00  -0.00   0.04    -0.00   0.00  -0.02
   7   6     0.01  -0.00  -0.00     0.00  -0.00   0.18    -0.00   0.00  -0.11
   8   1     0.02   0.01  -0.00    -0.23  -0.08   0.04    -0.37  -0.13   0.07
   9   1     0.02   0.01   0.00     0.23   0.08   0.04     0.37   0.12   0.07
  10   1     0.01  -0.02  -0.00     0.00   0.00   0.37     0.00   0.00   0.61
  11   1     0.01   0.26   0.19    -0.01   0.01   0.00    -0.02   0.01  -0.00
  12   1     0.01   0.26  -0.19     0.01  -0.01  -0.00     0.01  -0.02   0.00
  13   1     0.00  -0.15  -0.11    -0.01  -0.00  -0.00    -0.02   0.00   0.00
  14   1     0.00  -0.15   0.11     0.01  -0.00   0.00     0.02   0.00  -0.00
  15   1     0.00   0.34  -0.25    -0.00   0.00  -0.00    -0.00   0.00   0.00
  16   1    -0.00   0.34   0.25     0.00   0.01   0.00     0.00  -0.00  -0.00
  17   1    -0.00  -0.15   0.11     0.02  -0.00   0.00    -0.01   0.00  -0.00
  18   1    -0.00  -0.15  -0.11    -0.02  -0.00  -0.00     0.01   0.00   0.00
  19   1    -0.01   0.26   0.19    -0.02  -0.01   0.00     0.01   0.01  -0.00
  20   1    -0.01   0.26  -0.19     0.01   0.02  -0.00    -0.01  -0.01   0.00
  21   1    -0.01  -0.02   0.01    -0.00   0.00  -0.61     0.00  -0.00   0.37
  22   1    -0.01   0.00  -0.00    -0.37   0.13  -0.06     0.23  -0.08   0.04
  23   1    -0.03   0.01   0.01     0.37  -0.13  -0.07    -0.23   0.08   0.04
                     46                     47                     48
                        a                      a                      a 
 Frequencies --  1507.8911              1508.1488              2953.0710
 Red. masses --     1.6704                 1.6345                 1.8910
 Frc consts  --     0.0000                 0.0000                 0.0000
 IR Inten    --     1.0843                 1.2859                 0.1337
 Raman Activ --     0.0000                 0.0000                 0.0000
 Depolar     --     0.0000                 0.0000                 0.0000
 Atom AN      X      Y      Z        X      Y      Z        X      Y      Z
   1   6    -0.08  -0.12   0.00    -0.08  -0.12   0.00     0.00   0.00  -0.00
   2   6    -0.03  -0.08   0.00    -0.03  -0.06   0.00     0.00   0.00   0.05
   3   6     0.02  -0.03   0.00     0.02  -0.05   0.00     0.00  -0.00  -0.14
   4   6    -0.01   0.00   0.00     0.00   0.01  -0.00    -0.00   0.00   0.20
   5   6     0.02   0.03   0.00    -0.02  -0.05  -0.00    -0.00   0.00  -0.14
   6   6    -0.03   0.08   0.00     0.03  -0.06  -0.00     0.00  -0.00   0.05
   7   6    -0.08   0.12   0.00     0.08  -0.12  -0.00     0.00  -0.00  -0.00
   8   1     0.09   0.34  -0.25     0.09   0.34  -0.25    -0.00   0.00   0.00
   9   1     0.10   0.34   0.25     0.09   0.34   0.25     0.00  -0.00   0.00
  10   1     0.12  -0.19   0.00     0.12  -0.19   0.00    -0.00  -0.00  -0.00
  11   1     0.02   0.10   0.08     0.02   0.06   0.05     0.00   0.07  -0.09
  12   1     0.02   0.10  -0.08     0.02   0.06  -0.05    -0.00  -0.07  -0.09
  13   1    -0.01   0.06   0.04    -0.01   0.11   0.08     0.00  -0.20   0.26
  14   1    -0.01   0.06  -0.04    -0.01   0.11  -0.08    -0.00   0.20   0.26
  15   1     0.01  -0.00   0.00    -0.00  -0.04   0.03     0.00  -0.29  -0.37
  16   1     0.01  -0.00   0.00     0.00  -0.04  -0.03     0.00   0.28  -0.37
  17   1    -0.01  -0.06   0.04     0.01   0.11  -0.08     0.00   0.20   0.26
  18   1    -0.01  -0.06  -0.04     0.01   0.11   0.08    -0.00  -0.20   0.26
  19   1     0.02  -0.10  -0.08    -0.02   0.06   0.05    -0.00   0.07  -0.09
  20   1     0.02  -0.10   0.08    -0.02   0.06  -0.05     0.00  -0.07  -0.09
  21   1     0.12   0.19   0.00    -0.12  -0.19  -0.00    -0.00   0.00  -0.00
  22   1     0.10  -0.34   0.25    -0.09   0.34  -0.25     0.00   0.00   0.00
  23   1     0.09  -0.34  -0.25    -0.09   0.34   0.25    -0.00  -0.00   0.00
                     49                     50                     51
                        a                      a                      a 
 Frequencies --  2956.6516              2961.8793              2969.9682
 Red. masses --     1.9335                 1.9803                 2.0245
 Frc consts  --     0.0000                 0.0000                 0.0000
 IR Inten    --     0.0002                 1.8368                 0.0001
 Raman Activ --     0.0000                 0.0000                 0.0000
 Depolar     --     0.0000                 0.0000                 0.0000
 Atom AN      X      Y      Z        X      Y      Z        X      Y      Z
   1   6     0.00   0.00  -0.01    -0.00  -0.00   0.01    -0.00  -0.00  -0.02
   2   6     0.00   0.00   0.12    -0.00   0.00  -0.17     0.00  -0.00   0.17
   3   6     0.00  -0.00  -0.17    -0.00   0.00   0.05    -0.00   0.00   0.13
   4   6    -0.00   0.00  -0.00    -0.00   0.00   0.16     0.00  -0.00   0.00
   5   6     0.00  -0.00   0.17     0.00  -0.00   0.05    -0.00   0.00  -0.13
   6   6    -0.00  -0.00  -0.12    -0.00  -0.00  -0.17    -0.00  -0.00  -0.17
   7   6    -0.00   0.00   0.01    -0.00   0.00   0.01    -0.00  -0.00   0.02
   8   1    -0.00   0.01   0.02     0.00  -0.03  -0.03    -0.00   0.04   0.05
   9   1     0.00  -0.01   0.02    -0.00   0.03  -0.03     0.00  -0.04   0.05
  10   1    -0.00  -0.00  -0.00     0.00   0.00   0.00    -0.00  -0.00  -0.00
  11   1     0.00   0.17  -0.22     0.00  -0.24   0.31    -0.00   0.23  -0.30
  12   1    -0.00  -0.17  -0.22    -0.00   0.24   0.31     0.00  -0.23  -0.30
  13   1    -0.00  -0.24   0.31     0.00   0.07  -0.09    -0.00   0.17  -0.22
  14   1     0.00   0.24   0.31    -0.00  -0.07  -0.09     0.00  -0.17  -0.22
  15   1     0.00  -0.00  -0.00     0.00  -0.22  -0.28     0.00   0.00   0.00
  16   1    -0.00  -0.00   0.00     0.00   0.21  -0.28    -0.00   0.00  -0.00
  17   1     0.00  -0.23  -0.31     0.00  -0.07  -0.09     0.00   0.16   0.22
  18   1    -0.00   0.24  -0.31    -0.00   0.07  -0.09    -0.00  -0.17   0.22
  19   1     0.00  -0.17   0.22    -0.00  -0.23   0.31    -0.00  -0.23   0.30
  20   1    -0.00   0.17   0.22     0.00   0.24   0.31     0.00   0.23   0.31
  21   1     0.00  -0.00   0.00     0.00  -0.00   0.00     0.00  -0.00   0.00
  22   1    -0.00  -0.01  -0.02    -0.00  -0.03  -0.03    -0.00  -0.04  -0.05
  23   1     0.00   0.01  -0.02     0.00   0.03  -0.03     0.00   0.04  -0.05
                     52                     53                     54
                        a                      a                      a 
 Frequencies --  2973.1461              2973.3486              2977.5037
 Red. masses --     1.4602                 1.4575                 1.4490
 Frc consts  --     0.0000                 0.0000                 0.0000
 IR Inten    --     0.2287                 0.2058                 0.3513
 Raman Activ --     0.0000                 0.0000                 0.0000
 Depolar     --     0.0000                 0.0000                 0.0000
 Atom AN      X      Y      Z        X      Y      Z        X      Y      Z
   1   6    -0.00  -0.01   0.00     0.00  -0.00  -0.00     0.00   0.00   0.00
   2   6    -0.00   0.05  -0.00     0.00  -0.06   0.00     0.00  -0.10  -0.01
   3   6     0.00   0.05  -0.00    -0.00   0.13   0.00    -0.00   0.10  -0.01
   4   6    -0.00  -0.18  -0.00    -0.00   0.00   0.00     0.00   0.01  -0.01
   5   6    -0.00   0.05   0.00    -0.00  -0.13   0.00     0.00   0.10  -0.00
   6   6     0.00   0.05  -0.00     0.00   0.06   0.00    -0.00  -0.10  -0.00
   7   6     0.00  -0.01   0.00     0.00   0.00  -0.00    -0.00   0.00   0.00
   8   1    -0.00   0.01   0.02     0.00   0.00   0.00     0.00  -0.01  -0.01
   9   1    -0.00   0.01  -0.02     0.00   0.00  -0.00     0.00  -0.00   0.00
  10   1     0.01   0.01  -0.00     0.00  -0.00  -0.00    -0.02  -0.01   0.00
  11   1     0.00  -0.09   0.14     0.00   0.11  -0.17    -0.00   0.19  -0.29
  12   1     0.00  -0.09  -0.14     0.00   0.11   0.17     0.00   0.20   0.30
  13   1     0.00  -0.10   0.15    -0.00  -0.24   0.37     0.00  -0.19   0.30
  14   1     0.00  -0.10  -0.15    -0.00  -0.25  -0.38     0.00  -0.18  -0.27
  15   1    -0.00   0.33   0.50    -0.00  -0.00  -0.00    -0.00   0.00   0.00
  16   1     0.00   0.33  -0.50    -0.00   0.00  -0.00    -0.00  -0.01   0.02
  17   1    -0.00  -0.10  -0.15    -0.00   0.24   0.37    -0.00  -0.18  -0.28
  18   1    -0.00  -0.10   0.15    -0.00   0.25  -0.37    -0.00  -0.19   0.29
  19   1    -0.00  -0.09   0.14     0.00  -0.11   0.17    -0.00   0.19  -0.29
  20   1    -0.00  -0.09  -0.14     0.00  -0.11  -0.17     0.00   0.20   0.30
  21   1    -0.01   0.01   0.00     0.00   0.00  -0.00     0.02  -0.01   0.00
  22   1     0.00   0.01   0.02     0.00  -0.00  -0.00    -0.00  -0.00  -0.01
  23   1     0.00   0.01  -0.02     0.00  -0.00   0.00    -0.00  -0.00   0.00
                     55                     56                     57
                        a                      a                      a 
 Frequencies --  2977.9444              2981.4528              2988.7690
 Red. masses --     2.0526                 1.5053                 1.5264
 Frc consts  --     0.0000                 0.0000                 0.0000
 IR Inten    --   228.2184                 0.0004               177.1241
 Raman Activ --     0.0000                 0.0000                 0.0000
 Depolar     --     0.0000                 0.0000                 0.0000
 Atom AN      X      Y      Z        X      Y      Z        X      Y      Z
   1   6    -0.00  -0.00   0.02    -0.01  -0.02   0.00     0.01   0.02  -0.00
   2   6    -0.00   0.00  -0.11     0.00   0.13   0.00    -0.00  -0.09  -0.00
   3   6     0.00  -0.00  -0.15     0.00   0.06  -0.00     0.00  -0.10   0.00
   4   6     0.00   0.00  -0.16    -0.00   0.00  -0.00    -0.00  -0.11   0.00
   5   6    -0.00  -0.01  -0.15     0.00  -0.06  -0.00    -0.00  -0.10  -0.00
   6   6    -0.00   0.00  -0.11     0.00  -0.13   0.00     0.00  -0.09   0.00
   7   6     0.00  -0.00   0.02    -0.01   0.02  -0.00    -0.01   0.02  -0.00
   8   1     0.00  -0.03  -0.04    -0.00   0.03   0.04     0.00  -0.03  -0.05
   9   1    -0.00   0.03  -0.04    -0.00   0.03  -0.04     0.00  -0.03   0.05
  10   1     0.00   0.00   0.00     0.04   0.03  -0.00    -0.05  -0.03   0.00
  11   1     0.00  -0.16   0.21     0.00  -0.24   0.37     0.00   0.16  -0.24
  12   1     0.00   0.14   0.19     0.00  -0.24  -0.37     0.00   0.16   0.24
  13   1     0.00  -0.19   0.25    -0.00  -0.11   0.17    -0.00   0.16  -0.25
  14   1    -0.00   0.20   0.27     0.00  -0.11  -0.17    -0.00   0.16   0.25
  15   1    -0.00   0.20   0.27     0.00   0.00   0.00    -0.00   0.19   0.29
  16   1    -0.00  -0.20   0.27     0.00  -0.00   0.00     0.00   0.19  -0.29
  17   1     0.00   0.21   0.28     0.00   0.11   0.17     0.00   0.16   0.25
  18   1    -0.00  -0.19   0.24    -0.00   0.11  -0.17     0.00   0.16  -0.25
  19   1     0.00  -0.16   0.21     0.00   0.24  -0.37    -0.00   0.16  -0.24
  20   1     0.00   0.14   0.18     0.00   0.24   0.37    -0.00   0.16   0.24
  21   1    -0.00   0.00   0.00     0.04  -0.03  -0.00     0.05  -0.03  -0.00
  22   1    -0.00  -0.03  -0.04    -0.00  -0.03  -0.04    -0.00  -0.03  -0.05
  23   1     0.00   0.03  -0.04    -0.00  -0.03   0.04    -0.00  -0.03   0.05
                     58                     59                     60
                        a                      a                      a 
 Frequencies --  3029.6739              3029.9768              3031.9629
 Red. masses --     1.9585                 1.9589                 1.9281
 Frc consts  --     0.0000                 0.0000                 0.0000
 IR Inten    --     0.0137               122.3233                20.0535
 Raman Activ --     0.0000                 0.0000                 0.0000
 Depolar     --     0.0000                 0.0000                 0.0000
 Atom AN      X      Y      Z        X      Y      Z        X      Y      Z
   1   6     0.00   0.00   0.21    -0.00  -0.00  -0.20     0.10   0.18  -0.00
   2   6     0.00   0.00   0.03    -0.00  -0.00  -0.03     0.00   0.02  -0.00
   3   6    -0.00   0.00   0.01    -0.00  -0.00  -0.01     0.00   0.01  -0.00
   4   6    -0.00   0.00   0.00     0.00   0.00  -0.01     0.00   0.00  -0.00
   5   6    -0.00   0.00  -0.01    -0.00   0.00  -0.01     0.00  -0.01  -0.00
   6   6    -0.00   0.00  -0.03    -0.00   0.00  -0.03     0.00  -0.02  -0.00
   7   6    -0.00   0.00  -0.20    -0.00   0.00  -0.21     0.10  -0.18  -0.00
   8   1     0.00  -0.29  -0.38    -0.00   0.29   0.38     0.02  -0.17  -0.28
   9   1    -0.01   0.29  -0.38     0.01  -0.28   0.37     0.02  -0.18   0.29
  10   1    -0.00  -0.00   0.03     0.00   0.00  -0.03    -0.39  -0.27   0.00
  11   1     0.00   0.03  -0.05    -0.00  -0.04   0.05    -0.00  -0.03   0.05
  12   1    -0.00  -0.03  -0.05     0.00   0.04   0.05    -0.00  -0.03  -0.05
  13   1     0.00   0.01  -0.01    -0.00  -0.01   0.02    -0.00  -0.01   0.02
  14   1    -0.00  -0.01  -0.01     0.00   0.01   0.02    -0.00  -0.01  -0.02
  15   1     0.00  -0.00  -0.00    -0.00   0.01   0.01     0.00   0.00   0.00
  16   1    -0.00  -0.00   0.00    -0.00  -0.01   0.01     0.00  -0.00   0.00
  17   1    -0.00   0.01   0.01    -0.00   0.01   0.02    -0.00   0.01   0.02
  18   1     0.00  -0.01   0.01     0.00  -0.01   0.02    -0.00   0.01  -0.02
  19   1     0.00  -0.03   0.05     0.00  -0.04   0.05    -0.00   0.03  -0.04
  20   1    -0.00   0.03   0.05    -0.00   0.04   0.05    -0.00   0.03   0.05
  21   1     0.00  -0.00  -0.03     0.00  -0.00  -0.03    -0.39   0.27   0.00
  22   1     0.01   0.28   0.37     0.01   0.28   0.37     0.02   0.18   0.29
  23   1    -0.00  -0.29   0.38    -0.00  -0.29   0.38     0.02   0.17  -0.28
                     61                     62                     63
                        a                      a                      a 
 Frequencies --  3032.4640              3037.3974              3038.0120
 Red. masses --     1.9247                 1.2647                 1.2645
 Frc consts  --     0.0000                 0.0000                 0.0000
 IR Inten    --   101.9278                56.6507                 7.8436
 Raman Activ --     0.0000                 0.0000                 0.0000
 Depolar     --     0.0000                 0.0000                 0.0000
 Atom AN      X      Y      Z        X      Y      Z        X      Y      Z
   1   6     0.10   0.18  -0.00     0.10  -0.03   0.00    -0.10   0.03  -0.00
   2   6     0.00   0.02  -0.00     0.00  -0.00   0.00    -0.00   0.00  -0.00
   3   6     0.00   0.01  -0.00    -0.00  -0.00   0.00     0.00   0.00  -0.00
   4   6    -0.00   0.01   0.00     0.00   0.00   0.00     0.00  -0.00   0.00
   5   6    -0.00   0.01   0.00    -0.00   0.00   0.00    -0.00   0.00   0.00
   6   6    -0.00   0.02   0.00     0.00   0.00   0.00     0.00   0.00   0.00
   7   6    -0.10   0.18   0.00     0.10   0.03   0.00     0.10   0.03   0.00
   8   1     0.02  -0.17  -0.28     0.01   0.20   0.29    -0.01  -0.20  -0.29
   9   1     0.02  -0.17   0.29     0.01   0.20  -0.29    -0.01  -0.20   0.29
  10   1    -0.39  -0.27   0.00    -0.39  -0.30   0.00     0.39   0.30  -0.00
  11   1    -0.00  -0.03   0.05     0.00   0.00  -0.01    -0.00  -0.00   0.00
  12   1    -0.00  -0.03  -0.05     0.00   0.00   0.01    -0.00  -0.00  -0.00
  13   1    -0.00  -0.02   0.03     0.00   0.00  -0.00    -0.00  -0.01   0.01
  14   1    -0.00  -0.02  -0.03     0.00   0.00   0.00    -0.00  -0.01  -0.01
  15   1     0.00  -0.01  -0.02    -0.00  -0.00  -0.00    -0.00  -0.00  -0.00
  16   1    -0.00  -0.01   0.02    -0.00   0.00  -0.00    -0.00  -0.00   0.00
  17   1     0.00  -0.02  -0.04     0.00  -0.00  -0.00     0.00  -0.01  -0.01
  18   1     0.00  -0.02   0.03     0.00  -0.00   0.00     0.00  -0.01   0.01
  19   1     0.00  -0.03   0.05     0.00  -0.00   0.01     0.00  -0.00   0.00
  20   1     0.00  -0.03  -0.05     0.00  -0.00  -0.01     0.00  -0.00  -0.00
  21   1     0.39  -0.27  -0.00    -0.39   0.30   0.00    -0.39   0.30   0.00
  22   1    -0.02  -0.18  -0.29     0.01  -0.20  -0.29     0.01  -0.20  -0.29
  23   1    -0.02  -0.17   0.28     0.01  -0.20   0.29     0.01  -0.20   0.29
