      -----------------------------------------------------------      
     |                   =====================                   |     
     |                           x T B                           |     
     |                   =====================                   |     
     |                         S. Grimme                         |     
     |          Mulliken Center for Theoretical Chemistry        |     
     |                    University of Bonn                     |     
      -----------------------------------------------------------      

   * xtb version 6.6.1 (8d0f1dd) compiled by 'stahn@M-Bot' on 2023-08-01

   xtb is free software: you can redistribute it and/or modify it under
   the terms of the GNU Lesser General Public License as published by
   the Free Software Foundation, either version 3 of the License, or
   (at your option) any later version.
   
   xtb is distributed in the hope that it will be useful,
   but WITHOUT ANY WARRANTY; without even the implied warranty of
   MERCHANTABILITY or FITNESS FOR A PARTICULAR PURPOSE.  See the
   GNU Lesser General Public License for more details.
   
   Cite this work as:
   * C. Bannwarth, E. Caldeweyher, S. Ehlert, A. Hansen, P. Pracht,
     J. Seibert, S. Spicher, S. Grimme, WIREs Comput. Mol. Sci., 2020, 11,
     e01493. DOI: 10.1002/wcms.1493
   
   for GFN2-xTB:
   * C. Bannwarth, S. Ehlert and S. Grimme., J. Chem. Theory Comput., 2019,
     15, 1652-1671. DOI: 10.1021/acs.jctc.8b01176
   for GFN1-xTB:
   * S. Grimme, C. Bannwarth, P. Shushkov, J. Chem. Theory Comput., 2017,
     13, 1989-2009. DOI: 10.1021/acs.jctc.7b00118
   for GFN0-xTB:
   * P. Pracht, E. Caldeweyher, S. Ehlert, S. Grimme, ChemRxiv, 2019, preprint.
     DOI: 10.26434/chemrxiv.8326202.v1
   for GFN-FF:
   * S. Spicher and S. Grimme, Angew. Chem. Int. Ed., 2020, 59, 15665-15673.
     DOI: 10.1002/anie.202004239
   
   for ALPB and GBSA implicit solvation:
   * S. Ehlert, M. Stahn, S. Spicher, S. Grimme, J. Chem. Theory Comput.,
     2021, 17, 4250-4261. DOI: 10.1021/acs.jctc.1c00471
   
   for DFT-D4:
   * E. Caldeweyher, C. Bannwarth and S. Grimme, J. Chem. Phys., 2017,
     147, 034112. DOI: 10.1063/1.4993215
   * E. Caldeweyher, S. Ehlert, A. Hansen, H. Neugebauer, S. Spicher,
     C. Bannwarth and S. Grimme, J. Chem. Phys., 2019, 150, 154122.
     DOI: 10.1063/1.5090222
   * E. Caldeweyher, J.-M. Mewes, S. Ehlert and S. Grimme, Phys. Chem. Chem. Phys.
     2020, 22, 8499-8512. DOI: 10.1039/D0CP00502A
   
   for sTDA-xTB:
   * S. Grimme and C. Bannwarth, J. Chem. Phys., 2016, 145, 054103.
     DOI: 10.1063/1.4959605
   
   in the mass-spec context:
   * V. Asgeirsson, C. Bauer and S. Grimme, Chem. Sci., 2017, 8, 4879.
     DOI: 10.1039/c7sc00601b
   * J. Koopman and S. Grimme, ACS Omega 2019, 4, 12, 15120-15133.
     DOI: 10.1021/acsomega.9b02011
   
   for metadynamics refer to:
   * S. Grimme, J. Chem. Theory Comput., 2019, 155, 2847-2862
     DOI: 10.1021/acs.jctc.9b00143
   
   for SPH calculations refer to:
   * S. Spicher and S. Grimme, J. Chem. Theory Comput., 2021, 17, 1701-1714
     DOI: 10.1021/acs.jctc.0c01306
   
   with help from (in alphabetical order)
   P. Atkinson, C. Bannwarth, F. Bohle, G. Brandenburg, E. Caldeweyher
   M. Checinski, S. Dohm, S. Ehlert, S. Ehrlich, I. Gerasimov, C. Hölzer
   A. Katbashev, J. Koopman, C. Lavigne, S. Lehtola, F. März, M. Müller,
   F. Musil, H. Neugebauer, J. Pisarek, C. Plett, P. Pracht, F. Pultar,
   J. Seibert, P. Shushkov, S. Spicher, M. Stahn, M. Steiner, T. Strunk,
   J. Stückrath, T. Rose, and J. Unsleber
   
 * started run on 2024/04/23 at 12:10:20.605     

           -------------------------------------------------
          |                Calculation Setup                |
           -------------------------------------------------

          program call               : xtb unfolded.xyz --gfn 2 --ohess -P 4
          coordinate file            : unfolded.xyz
          omp threads                :                     4

   ID    Z sym.   atoms
    1    6 C      1-7
    2    1 H      8-23

           -------------------------------------------------
          |                 G F N 2 - x T B                 |
           -------------------------------------------------

        Reference                      10.1021/acs.jctc.8b01176
      * Hamiltonian:
        H0-scaling (s, p, d)           1.850000    2.230000    2.230000
        zeta-weighting                 0.500000
      * Dispersion:
        s8                             2.700000
        a1                             0.520000
        a2                             5.000000
        s9                             5.000000
      * Repulsion:
        kExp                           1.500000    1.000000
        rExp                           1.000000
      * Coulomb:
        alpha                          2.000000
        third order                    shell-resolved
        anisotropic                    true
        a3                             3.000000
        a5                             4.000000
        cn-shift                       1.200000
        cn-exp                         4.000000
        max-rad                        5.000000


          ...................................................
          :                      SETUP                      :
          :.................................................:
          :  # basis functions                  44          :
          :  # atomic orbitals                  44          :
          :  # shells                           30          :
          :  # electrons                        44          :
          :  max. iterations                   250          :
          :  Hamiltonian                  GFN2-xTB          :
          :  restarted?                      false          :
          :  GBSA solvation                  false          :
          :  PC potential                    false          :
          :  electronic temp.          300.0000000     K    :
          :  accuracy                    1.0000000          :
          :  -> integral cutoff          0.2500000E+02      :
          :  -> integral neglect         0.1000000E-07      :
          :  -> SCF convergence          0.1000000E-05 Eh   :
          :  -> wf. convergence          0.1000000E-03 e    :
          :  Broyden damping             0.4000000          :
          ...................................................

 iter      E             dE          RMSdq      gap      omega  full diag
   1    -23.4338707 -0.234339E+02  0.259E+00   12.61       0.0  T
   2    -23.4969161 -0.630454E-01  0.142E+00   12.46       1.0  T
   3    -23.4976678 -0.751652E-03  0.752E-01   12.47       1.0  T
   4    -23.4978412 -0.173369E-03  0.871E-02   12.50       1.0  T
   5    -23.4978485 -0.736670E-05  0.471E-02   12.50       1.0  T
   6    -23.4978497 -0.117922E-05  0.240E-03   12.50       8.7  T
   7    -23.4978497 -0.416234E-07  0.103E-03   12.50      20.3  T
   8    -23.4978497 -0.146624E-08  0.267E-04   12.50      78.0  T
   9    -23.4978497 -0.152340E-09  0.936E-05   12.50     222.7  T

   *** convergence criteria satisfied after 9 iterations ***

         #    Occupation            Energy/Eh            Energy/eV
      -------------------------------------------------------------
         1        2.0000           -0.6208427             -16.8940
       ...           ...                  ...                  ...
        16        2.0000           -0.4494131             -12.2292
        17        2.0000           -0.4381415             -11.9224
        18        2.0000           -0.4315645             -11.7435
        19        2.0000           -0.4285272             -11.6608
        20        2.0000           -0.4198953             -11.4259
        21        2.0000           -0.4184169             -11.3857
        22        2.0000           -0.4145096             -11.2794 (HOMO)
        23                          0.0449384               1.2228 (LUMO)
        24                          0.0967211               2.6319
        25                          0.1167263               3.1763
        26                          0.1256144               3.4181
        27                          0.1265421               3.4434
       ...                                ...                  ...
        44                          0.3038206               8.2674
      -------------------------------------------------------------
                  HL-Gap            0.4594480 Eh           12.5022 eV
             Fermi-level           -0.1847856 Eh           -5.0283 eV

 SCC (total)                   0 d,  0 h,  0 min,  0.007 sec
 SCC setup                      ...        0 min,  0.000 sec (  4.947%)
 Dispersion                     ...        0 min,  0.000 sec (  1.870%)
 classical contributions        ...        0 min,  0.000 sec (  0.228%)
 integral evaluation            ...        0 min,  0.001 sec (  7.660%)
 iterations                     ...        0 min,  0.004 sec ( 60.141%)
 molecular gradient             ...        0 min,  0.001 sec ( 20.363%)
 printout                       ...        0 min,  0.000 sec (  3.951%)

         :::::::::::::::::::::::::::::::::::::::::::::::::::::
         ::                     SUMMARY                     ::
         :::::::::::::::::::::::::::::::::::::::::::::::::::::
         :: total energy             -23.156840896898 Eh    ::
         :: gradient norm              0.024513970974 Eh/a0 ::
         :: HOMO-LUMO gap             12.502216325707 eV    ::
         ::.................................................::
         :: SCC energy               -23.497849740608 Eh    ::
         :: -> isotropic ES            0.004095823139 Eh    ::
         :: -> anisotropic ES          0.008047613691 Eh    ::
         :: -> anisotropic XC          0.014381037905 Eh    ::
         :: -> dispersion             -0.012562399689 Eh    ::
         :: repulsion energy           0.341063409428 Eh    ::
         :: add. restraining           0.000000000000 Eh    ::
         :: total charge               0.000000000000 e     ::
         :::::::::::::::::::::::::::::::::::::::::::::::::::::

      ----------------------------------------------------------- 
     |                   =====================                   |
     |                        A N C O P T                        |
     |                   =====================                   |
     |               Approximate Normal Coordinate               |
     |                Rational Function Optimizer                |
      ----------------------------------------------------------- 

          ...................................................
          :                      SETUP                      :
          :.................................................:
          :   optimization level            normal          :
          :   max. optcycles                   200          :
          :   ANC micro-cycles                  20          :
          :   degrees of freedom                63          :
          :.................................................:
          :   RF solver                   davidson          :
          :   write xtbopt.log                true          :
          :   linear?                        false          :
          :   energy convergence         0.5000000E-05 Eh   :
          :   grad. convergence          0.1000000E-02 Eh/α :
          :   maxmium RF displ.          2.0000000          :
          :   Hlow (freq-cutoff)         0.2000000E-01      :
          :   Hmax (freq-cutoff)         5.0000000          :
          :   S6 in model hess.         70.0000000          :
          ...................................................

generating ANC from model Hessian ...
Using Lindh-Hessian (1995)
 Shifting diagonal of input Hessian by   1.785333470413639E-002
 Lowest  eigenvalues of input Hessian
    0.000000    0.000000    0.000000    0.000000    0.000000    0.000000
    0.020000    0.020591    0.022487    0.024885    0.025647    0.028375
    0.028847    0.032014    0.032369    0.040709    0.043722    0.060493
 Highest eigenvalues
    1.178262    1.185584    1.227939    1.238142    1.283946    1.328691
 

........................................................................
.............................. CYCLE    1 ..............................
........................................................................

 iter      E             dE          RMSdq      gap      omega  full diag
   1    -23.4978497 -0.234978E+02  0.268E-05   12.50       0.0  T
   2    -23.4978497 -0.123279E-11  0.150E-05   12.50    1387.2  T
   3    -23.4978497 -0.135003E-12  0.397E-06   12.50    5248.3  T
     SCC iter.                  ...        0 min,  0.001 sec
     gradient                   ...        0 min,  0.001 sec
 * total energy  :   -23.1568409 Eh     change       -0.1078604E-10 Eh
   gradient norm :     0.0245139 Eh/α   predicted     0.0000000E+00 (-100.00%)
   displ. norm   :     0.1418926 α      lambda       -0.1861915E-02
   maximum displ.:     0.0964433 α      in ANC's #27, #7, #17, ...

........................................................................
.............................. CYCLE    2 ..............................
........................................................................

 iter      E             dE          RMSdq      gap      omega  full diag
   1    -23.5040906 -0.235041E+02  0.150E-01   12.67       0.0  T
   2    -23.5040936 -0.302828E-05  0.857E-02   12.68       1.0  T
   3    -23.5040941 -0.503291E-06  0.397E-03   12.67       5.3  T
   4    -23.5040942 -0.357285E-07  0.151E-03   12.67      13.8  T
   5    -23.5040942 -0.142609E-08  0.753E-04   12.67      27.7  T
   6    -23.5040942 -0.504748E-09  0.393E-05   12.67     531.2  T
     SCC iter.                  ...        0 min,  0.002 sec
     gradient                   ...        0 min,  0.001 sec
 * total energy  :   -23.1580535 Eh     change       -0.1212563E-02 Eh
   gradient norm :     0.0109607 Eh/α   predicted    -0.9497783E-03 ( -21.67%)
   displ. norm   :     0.0710591 α      lambda       -0.3143830E-03
   maximum displ.:     0.0531684 α      in ANC's #7, #27, #17, ...

........................................................................
.............................. CYCLE    3 ..............................
........................................................................

 iter      E             dE          RMSdq      gap      omega  full diag
   1    -23.5084002 -0.235084E+02  0.642E-02   12.76       0.0  T
   2    -23.5084021 -0.185270E-05  0.360E-02   12.76       1.0  T
   3    -23.5084021 -0.693774E-07  0.406E-03   12.76       5.1  T
   4    -23.5084022 -0.208983E-07  0.733E-04   12.76      28.4  T
   5    -23.5084022 -0.163439E-08  0.411E-04   12.76      50.8  T
     SCC iter.                  ...        0 min,  0.002 sec
     gradient                   ...        0 min,  0.001 sec
 * total energy  :   -23.1582235 Eh     change       -0.1700820E-03 Eh
   gradient norm :     0.0018878 Eh/α   predicted    -0.1580466E-03 (  -7.08%)
   displ. norm   :     0.0213711 α      lambda       -0.8484393E-05
   maximum displ.:     0.0202027 α      in ANC's #7, #2, #62, ...

........................................................................
.............................. CYCLE    4 ..............................
........................................................................

 iter      E             dE          RMSdq      gap      omega  full diag
   1    -23.5093787 -0.235094E+02  0.105E-02   12.79       0.0  T
   2    -23.5093789 -0.128193E-06  0.583E-03   12.79       3.6  T
   3    -23.5093789 -0.387802E-08  0.120E-03   12.79      17.4  T
   4    -23.5093789 -0.118274E-08  0.224E-04   12.79      93.2  T
   5    -23.5093789 -0.168747E-09  0.117E-04   12.79     178.8  T
     SCC iter.                  ...        0 min,  0.002 sec
     gradient                   ...        0 min,  0.001 sec
 * total energy  :   -23.1582303 Eh     change       -0.6800373E-05 Eh
   gradient norm :     0.0008143 Eh/α   predicted    -0.4737032E-05 ( -30.34%)
   displ. norm   :     0.0059334 α      lambda       -0.6695646E-06
   maximum displ.:     0.0033194 α      in ANC's #7, #17, #2, ...

........................................................................
.............................. CYCLE    5 ..............................
........................................................................

 iter      E             dE          RMSdq      gap      omega  full diag
   1    -23.5091517 -0.235092E+02  0.358E-03   12.79       0.0  T
   2    -23.5091517 -0.857472E-08  0.202E-03   12.79      10.3  T
   3    -23.5091517 -0.319851E-09  0.262E-04   12.79      79.7  T
   4    -23.5091517 -0.103100E-09  0.490E-05   12.79     425.7  T
     SCC iter.                  ...        0 min,  0.001 sec
     gradient                   ...        0 min,  0.001 sec
 * total energy  :   -23.1582313 Eh     change       -0.9491875E-06 Eh
   gradient norm :     0.0002110 Eh/α   predicted    -0.5443704E-06 ( -42.65%)
   displ. norm   :     0.0052408 α      lambda        0.5589083E-06
   maximum displ.:     0.0028343 α      in ANC's #7, #17, #27, ...

   *** GEOMETRY OPTIMIZATION CONVERGED AFTER 5 ITERATIONS ***

------------------------------------------------------------------------
 total energy gain   :        -0.0013904 Eh       -0.8725 kcal/mol
 total RMSD          :         0.0464332 a0        0.0246 Å
 total power (kW/mol):        -0.7300961 (step) -133.1909 (real)
------------------------------------------------------------------------

 ANCopt (total)                0 d,  0 h,  0 min,  0.027 sec
 optimizer setup                ...        0 min,  0.001 sec (  3.397%)
 model hessian                  ...        0 min,  0.005 sec ( 19.919%)
 ANC generation                 ...        0 min,  0.001 sec (  1.863%)
 coordinate transformation      ...        0 min,  0.000 sec (  0.194%)
 single point calculation       ...        0 min,  0.019 sec ( 69.718%)
 optimization log               ...        0 min,  0.000 sec (  1.458%)
 hessian update                 ...        0 min,  0.000 sec (  0.285%)
 rational function              ...        0 min,  0.000 sec (  1.053%)

================
 final structure:
================
23
 xtb: 6.6.1 (8d0f1dd)
C           -3.79511225249140        0.36008771051282        0.00022625940855
C           -2.53354047787204       -0.49474804376548       -0.00011122376991
C           -1.26702574438837        0.35804082140106       -0.00130585165447
C            0.00000439276334       -0.49382149273227        0.00053689025699
C            1.26703091307096        0.35804719953771        0.00243903578713
C            2.53354958704451       -0.49473198428511       -0.00050871093103
C            3.79511441630382        0.36011341868473       -0.00122110370580
H           -3.82329210037151        0.99796838959604        0.88109803342636
H           -3.82550587011168        0.99561968168006       -0.88226595948263
H           -4.68359304996396       -0.26720298147852        0.00218624401045
H           -2.53234342145277       -1.13971022005328        0.88169063332380
H           -2.53345201027189       -1.14078295785321       -0.88112475082922
H           -1.26757600138705        1.00236684233189       -0.88383321934074
H           -1.26807708504781        1.00544435519218        0.87897223532458
H            0.00130358969175       -1.14005604430567       -0.88072113747161
H           -0.00129260213415       -1.14023031997851        0.88166058144855
H            1.26815464474315        1.00159365062441        0.88553043868766
H            1.26750123830418        1.00622928838924       -0.87726982895507
H            2.53424031149445       -1.14155500331451        0.87992152144586
H            2.53158044743691       -1.13890558795796       -0.88288933757853
H            4.68358897247855       -0.26716091365436       -0.00716194767401
H            3.82761305359988        0.99303402644873        0.88306771737771
H            3.82119204856109        1.00059616498003       -0.88027051910460
           -------------------------------------------------
          |                Final Singlepoint                |
           -------------------------------------------------

          ...................................................
          :                      SETUP                      :
          :.................................................:
          :  # basis functions                  44          :
          :  # atomic orbitals                  44          :
          :  # shells                           30          :
          :  # electrons                        44          :
          :  max. iterations                   250          :
          :  Hamiltonian                  GFN2-xTB          :
          :  restarted?                      false          :
          :  GBSA solvation                  false          :
          :  PC potential                    false          :
          :  electronic temp.          300.0000000     K    :
          :  accuracy                    1.0000000          :
          :  -> integral cutoff          0.2500000E+02      :
          :  -> integral neglect         0.1000000E-07      :
          :  -> SCF convergence          0.1000000E-05 Eh   :
          :  -> wf. convergence          0.1000000E-03 e    :
          :  Broyden damping             0.4000000          :
          ...................................................

 iter      E             dE          RMSdq      gap      omega  full diag
   1    -23.5091517 -0.235092E+02  0.276E-05   12.79       0.0  T
   2    -23.5091517 -0.262901E-12  0.162E-05   12.79    1283.7  T
   3    -23.5091517  0.355271E-14  0.211E-06   12.79    9893.1  T

   *** convergence criteria satisfied after 3 iterations ***

         #    Occupation            Energy/Eh            Energy/eV
      -------------------------------------------------------------
         1        2.0000           -0.6218325             -16.9209
       ...           ...                  ...                  ...
        16        2.0000           -0.4487105             -12.2100
        17        2.0000           -0.4365284             -11.8785
        18        2.0000           -0.4330587             -11.7841
        19        2.0000           -0.4271680             -11.6238
        20        2.0000           -0.4204724             -11.4416
        21        2.0000           -0.4173553             -11.3568
        22        2.0000           -0.4167263             -11.3397 (HOMO)
        23                          0.0532304               1.4485 (LUMO)
        24                          0.1097168               2.9855
        25                          0.1146387               3.1195
        26                          0.1252294               3.4077
        27                          0.1340927               3.6488
       ...                                ...                  ...
        44                          0.3218028               8.7567
      -------------------------------------------------------------
                  HL-Gap            0.4699567 Eh           12.7882 eV
             Fermi-level           -0.1817480 Eh           -4.9456 eV

 SCC (total)                   0 d,  0 h,  0 min,  0.003 sec
 SCC setup                      ...        0 min,  0.000 sec (  6.998%)
 Dispersion                     ...        0 min,  0.000 sec (  1.432%)
 classical contributions        ...        0 min,  0.000 sec (  0.468%)
 integral evaluation            ...        0 min,  0.000 sec ( 12.417%)
 iterations                     ...        0 min,  0.001 sec ( 30.728%)
 molecular gradient             ...        0 min,  0.001 sec ( 39.814%)
 printout                       ...        0 min,  0.000 sec (  7.263%)

         :::::::::::::::::::::::::::::::::::::::::::::::::::::
         ::                     SUMMARY                     ::
         :::::::::::::::::::::::::::::::::::::::::::::::::::::
         :: total energy             -23.158231291425 Eh    ::
         :: gradient norm              0.000211087688 Eh/a0 ::
         :: HOMO-LUMO gap             12.788171805127 eV    ::
         ::.................................................::
         :: SCC energy               -23.509151703132 Eh    ::
         :: -> isotropic ES            0.004362510293 Eh    ::
         :: -> anisotropic ES          0.007757106243 Eh    ::
         :: -> anisotropic XC          0.014575482325 Eh    ::
         :: -> dispersion             -0.012606345433 Eh    ::
         :: repulsion energy           0.350975049469 Eh    ::
         :: add. restraining           0.000000000000 Eh    ::
         :: total charge              -0.000000000000 e     ::
         :::::::::::::::::::::::::::::::::::::::::::::::::::::

           ------------------------------------------------- 
          |                Numerical Hessian                |
           ------------------------------------------------- 
step length          :   0.00500
SCC accuracy         :   0.30000
Hessian scale factor :   1.00000
frozen atoms in %    :   0.00000    0
RMS gradient         :   0.00021
estimated CPU  time      0.07 min
estimated wall time      0.02 min

writing file <hessian>.

 projected vibrational frequencies (cm⁻¹)
eigval :       -0.00    -0.00    -0.00     0.00     0.00     0.00
eigval :       58.50    70.77   102.59   128.67   133.62   232.94
eigval :      234.03   249.83   306.41   418.96   479.93   768.71
eigval :      777.57   812.27   876.17   930.63   950.26   952.31
eigval :     1013.44  1050.21  1088.05  1100.32  1113.29  1114.07
eigval :     1148.43  1199.55  1222.23  1248.59  1259.45  1275.04
eigval :     1290.79  1293.70  1300.29  1345.04  1373.34  1379.62
eigval :     1416.04  1416.31  1495.83  1496.51  1498.95  1500.96
eigval :     1504.08  1504.87  1504.91  1507.89  1508.15  2953.07
eigval :     2956.65  2961.88  2969.97  2973.15  2973.35  2977.50
eigval :     2977.94  2981.45  2988.77  3029.67  3029.98  3031.96
eigval :     3032.46  3037.40  3038.01
           -------------------------------------------------
          |                Property Printout                |
           -------------------------------------------------

    * Orbital Energies and Occupations

         #    Occupation            Energy/Eh            Energy/eV
      -------------------------------------------------------------
         1        2.0000           -0.6218325             -16.9209
       ...           ...                  ...                  ...
        10        2.0000           -0.4967513             -13.5173
        11        2.0000           -0.4930046             -13.4153
        12        2.0000           -0.4822021             -13.1214
        13        2.0000           -0.4756035             -12.9418
        14        2.0000           -0.4608467             -12.5403
        15        2.0000           -0.4551189             -12.3844
        16        2.0000           -0.4487105             -12.2100
        17        2.0000           -0.4365284             -11.8785
        18        2.0000           -0.4330588             -11.7841
        19        2.0000           -0.4271680             -11.6238
        20        2.0000           -0.4204724             -11.4416
        21        2.0000           -0.4173553             -11.3568
        22        2.0000           -0.4167263             -11.3397 (HOMO)
        23                          0.0532304               1.4485 (LUMO)
        24                          0.1097168               2.9855
        25                          0.1146387               3.1195
        26                          0.1252294               3.4077
        27                          0.1340927               3.6488
        28                          0.1447791               3.9396
        29                          0.1493737               4.0647
        30                          0.1517998               4.1307
        31                          0.1755091               4.7758
        32                          0.1766234               4.8062
        33                          0.1894651               5.1556
       ...                                ...                  ...
        44                          0.3218028               8.7567
      -------------------------------------------------------------
                  HL-Gap            0.4699567 Eh           12.7882 eV
             Fermi-level           -0.1817480 Eh           -4.9456 eV

     #   Z          covCN         q      C6AA      α(0)
     1   6 C        3.752    -0.102    22.509     6.766
     2   6 C        3.801    -0.053    21.523     6.605
     3   6 C        3.803    -0.059    21.630     6.621
     4   6 C        3.803    -0.058    21.624     6.620
     5   6 C        3.803    -0.059    21.630     6.621
     6   6 C        3.801    -0.053    21.523     6.605
     7   6 C        3.752    -0.102    22.509     6.766
     8   1 H        0.925     0.033     2.542     2.493
     9   1 H        0.925     0.033     2.542     2.493
    10   1 H        0.925     0.033     2.551     2.497
    11   1 H        0.924     0.028     2.610     2.526
    12   1 H        0.924     0.028     2.610     2.526
    13   1 H        0.924     0.030     2.592     2.518
    14   1 H        0.924     0.030     2.592     2.518
    15   1 H        0.924     0.028     2.616     2.529
    16   1 H        0.924     0.028     2.616     2.529
    17   1 H        0.924     0.030     2.592     2.518
    18   1 H        0.924     0.030     2.592     2.518
    19   1 H        0.924     0.028     2.610     2.526
    20   1 H        0.924     0.028     2.610     2.526
    21   1 H        0.925     0.033     2.551     2.497
    22   1 H        0.925     0.033     2.542     2.493
    23   1 H        0.925     0.033     2.542     2.493

 Mol. C6AA /au·bohr⁶  :       3402.959281
 Mol. C8AA /au·bohr⁸  :      70205.493462
 Mol. α(0) /au        :         86.806076


Wiberg/Mayer (AO) data.
largest (>0.10) Wiberg bond orders for each atom

 ---------------------------------------------------------------------------
     #   Z sym  total        # sym  WBO       # sym  WBO       # sym  WBO
 ---------------------------------------------------------------------------
     1   6 C    3.997 --     2 C    1.019     9 H    0.988     8 H    0.988
                            10 H    0.988
     2   6 C    3.998 --     1 C    1.019     3 C    1.008    12 H    0.979
                            11 H    0.979
     3   6 C    3.997 --     2 C    1.008     4 C    1.007    13 H    0.978
                            14 H    0.978
     4   6 C    3.997 --     3 C    1.007     5 C    1.007    16 H    0.978
                            15 H    0.978
     5   6 C    3.997 --     6 C    1.008     4 C    1.007    17 H    0.978
                            18 H    0.978
     6   6 C    3.998 --     7 C    1.019     5 C    1.008    19 H    0.979
                            20 H    0.979
     7   6 C    3.997 --     6 C    1.019    22 H    0.988    23 H    0.988
                            21 H    0.988
     8   1 H    0.999 --     1 C    0.988
     9   1 H    0.999 --     1 C    0.988
    10   1 H    0.999 --     1 C    0.988
    11   1 H    0.999 --     2 C    0.979
    12   1 H    0.999 --     2 C    0.979
    13   1 H    0.999 --     3 C    0.978
    14   1 H    0.999 --     3 C    0.978
    15   1 H    0.999 --     4 C    0.978
    16   1 H    0.999 --     4 C    0.978
    17   1 H    0.999 --     5 C    0.978
    18   1 H    0.999 --     5 C    0.978
    19   1 H    0.999 --     6 C    0.979
    20   1 H    0.999 --     6 C    0.979
    21   1 H    0.999 --     7 C    0.988
    22   1 H    0.999 --     7 C    0.988
    23   1 H    0.999 --     7 C    0.988
 ---------------------------------------------------------------------------

Topologies differ in total number of bonds
Writing topology from bond orders to xtbtopo.mol

molecular dipole:
                 x           y           z       tot (Debye)
 q only:        0.000       0.012      -0.000
   full:        0.000       0.010      -0.000       0.025
molecular quadrupole (traceless):
                xx          xy          yy          xz          yz          zz
 q only:        0.430      -0.000      -0.034      -0.001       0.000      -0.396
  q+dip:       -1.862       0.000      -0.004       0.000      -0.000       1.866
   full:       -0.757       0.000      -0.045      -0.000      -0.000       0.802

           -------------------------------------------------
          |                Geometry Summary                 |
           -------------------------------------------------

      molecular mass/u    :      100.2022033
   center of mass at/Å    :        0.0000029       0.0006744      -0.0000075
  moments of inertia/u·Å² :        0.4204264E+02   0.6852320E+03   0.7053466E+03
rotational constants/cm⁻¹ :        0.4009651E+00   0.2460135E-01   0.2389978E-01

 * 22 selected distances

     #   Z          #   Z                                           value/Å
     1   6 C        2   6 C                                       1.5239121
     2   6 C        3   6 C                                       1.5268629
     3   6 C        4   6 C                                       1.5267739
     4   6 C        5   6 C                                       1.5267745
     5   6 C        6   6 C                                       1.5268631 (max)
     6   6 C        7   6 C                                       1.5239119
     1   6 C        8   1 H                                       1.0879435
     1   6 C        9   1 H                                       1.0879418
     1   6 C       10   1 H                                       1.0876101
     2   6 C       11   1 H                                       1.0924982
     2   6 C       12   1 H                                       1.0924954
     3   6 C       13   1 H                                       1.0927081
     3   6 C       14   1 H                                       1.0927132
     4   6 C       15   1 H                                       1.0928114
     4   6 C       16   1 H                                       1.0928061
     5   6 C       17   1 H                                       1.0927049
     5   6 C       18   1 H                                       1.0927160
     6   6 C       19   1 H                                       1.0924917
     6   6 C       20   1 H                                       1.0925014
     7   6 C       21   1 H                                       1.0876101 (min)
     7   6 C       22   1 H                                       1.0879392
     7   6 C       23   1 H                                       1.0879459

 * 2 distinct bonds (by element types)

   Z      Z             #   av. dist./Å        max./Å        min./Å
   1 H    6 C          16     1.0908398     1.0928114     1.0876101
   6 C    6 C           6     1.5258497     1.5268631     1.5239119

           -------------------------------------------------
          |               Frequency Printout                |
           -------------------------------------------------
 projected vibrational frequencies (cm⁻¹)
eigval :       -0.00    -0.00    -0.00     0.00     0.00     0.00
eigval :       58.50    70.77   102.59   128.67   133.62   232.94
eigval :      234.03   249.83   306.41   418.96   479.93   768.71
eigval :      777.57   812.27   876.17   930.63   950.26   952.31
eigval :     1013.44  1050.21  1088.05  1100.32  1113.29  1114.07
eigval :     1148.43  1199.55  1222.23  1248.59  1259.45  1275.04
eigval :     1290.79  1293.70  1300.29  1345.04  1373.34  1379.62
eigval :     1416.04  1416.31  1495.83  1496.51  1498.95  1500.96
eigval :     1504.08  1504.87  1504.91  1507.89  1508.15  2953.07
eigval :     2956.65  2961.88  2969.97  2973.15  2973.35  2977.50
eigval :     2977.94  2981.45  2988.77  3029.67  3029.98  3031.96
eigval :     3032.46  3037.40  3038.01
 reduced masses (amu)
   1:  9.02   2: 10.09   3:  8.70   4: 10.17   5:  9.74   6:  7.24   7:  8.71   8:  5.21
   9:  9.00  10:  7.64  11:  6.05  12:  2.03  13:  2.30  14:  8.60  15:  9.74  16:  8.64
  17:  9.07  18:  1.61  19:  1.87  20:  2.31  21:  2.63  22:  6.58  23:  2.50  24:  5.23
  25:  1.77  26: 10.55  27:  8.04  28:  8.83  29:  6.82  30:  8.53  31:  8.41  32:  6.63
  33:  4.95  34:  3.56  35:  3.51  36:  1.41  37:  2.50  38:  1.93  39:  3.68  40:  4.22
  41:  5.01  42:  5.79  43:  3.19  44:  3.17  45:  1.87  46:  1.95  47:  1.83  48:  2.02
  49:  1.80  50:  1.53  51:  1.53  52:  1.67  53:  1.63  54:  1.89  55:  1.93  56:  1.98
  57:  2.02  58:  1.46  59:  1.46  60:  1.45  61:  2.05  62:  1.51  63:  1.53  64:  1.96
  65:  1.96  66:  1.93  67:  1.92  68:  1.26  69:  1.26
 IR intensities (km·mol⁻¹)
   1:  0.02   2:  0.00   3:  0.00   4:  0.00   5:  0.00   6:  0.01   7:  0.00   8:  0.00
   9:  0.09  10:  0.00  11:  0.00  12:  0.00  13:  0.01  14:  0.00  15:  0.04  16:  0.28
  17:  0.09  18: 14.27  19:  0.00  20:  3.54  21:  0.00  22:  4.19  23:  1.68  24:  2.82
  25:  0.00  26:  0.16  27:  1.78  28:  2.02  29:  2.73  30:  0.03  31:  1.73  32:  0.50
  33:  0.00  34:  0.16  35:  0.22  36:  0.00  37:  0.00  38:  0.07  39:  0.28  40:  1.44
  41:  0.00  42:  0.47  43:  0.45  44:  1.19  45:  0.14  46:  0.00  47:  0.27  48:  0.33
  49:  0.05  50:  0.27  51:  4.60  52:  1.08  53:  1.29  54:  0.13  55:  0.00  56:  1.84
  57:  0.00  58:  0.23  59:  0.21  60:  0.35  61:228.22  62:  0.00  63:177.12  64:  0.01
  65:122.32  66: 20.05  67:101.93  68: 56.65  69:  7.84
 Raman intensities (amu)
   1:  0.00   2:  0.00   3:  0.00   4:  0.00   5:  0.00   6:  0.00   7:  0.00   8:  0.00
   9:  0.00  10:  0.00  11:  0.00  12:  0.00  13:  0.00  14:  0.00  15:  0.00  16:  0.00
  17:  0.00  18:  0.00  19:  0.00  20:  0.00  21:  0.00  22:  0.00  23:  0.00  24:  0.00
  25:  0.00  26:  0.00  27:  0.00  28:  0.00  29:  0.00  30:  0.00  31:  0.00  32:  0.00
  33:  0.00  34:  0.00  35:  0.00  36:  0.00  37:  0.00  38:  0.00  39:  0.00  40:  0.00
  41:  0.00  42:  0.00  43:  0.00  44:  0.00  45:  0.00  46:  0.00  47:  0.00  48:  0.00
  49:  0.00  50:  0.00  51:  0.00  52:  0.00  53:  0.00  54:  0.00  55:  0.00  56:  0.00
  57:  0.00  58:  0.00  59:  0.00  60:  0.00  61:  0.00  62:  0.00  63:  0.00  64:  0.00
  65:  0.00  66:  0.00  67:  0.00  68:  0.00  69:  0.00
 output can be read by thermo (or use thermo option).
 writing <g98.out> molden fake output.
 recommended (thermochemical) frequency scaling factor: 1.0
           -------------------------------------------------
          |             Thermodynamic Functions             |
           -------------------------------------------------

Molecule has the following symmetry elements: (C2) 2*(sigma) 
It seems to be the C2v point group
c2v symmetry found (for desy threshold:  0.10E+00) used in thermo

          ...................................................
          :                      SETUP                      :
          :.................................................:
          :  # frequencies                          63      :
          :  # imaginary freq.                       0      :
          :  linear?                             false      :
          :  only rotor calc.                    false      :
          :  symmetry                              c2v      :
          :  rotational number                       2      :
          :  scaling factor                  1.0000000      :
          :  rotor cutoff                   50.0000000 cm⁻¹ :
          :  imag. cutoff                  -20.0000000 cm⁻¹ :
          :.................................................:

    mode    ω/cm⁻¹     T·S(HO)/kcal·mol⁻¹    T·S(FR)/kcal·mol⁻¹   T·S(vib)
   ------------------------------------------------------------------------
       1     58.50    -1.34385 ( 65.20%)    -1.00988 ( 34.80%)    -1.22762
       2     70.77    -1.23192 ( 80.05%)    -0.95349 ( 19.95%)    -1.17638
       3    102.59    -1.01507 ( 94.66%)    -0.84354 (  5.34%)    -1.00591
       4    128.67    -0.88425 ( 97.77%)    -0.77645 (  2.23%)    -0.88185
       5    133.62    -0.86261 ( 98.08%)    -0.76527 (  1.92%)    -0.86074
       6    232.94    -0.55341 ( 99.79%)    -0.60066 (  0.21%)    -0.55351
       7    234.03    -0.55093 ( 99.79%)    -0.59928 (  0.21%)    -0.55104
       8    249.83    -0.51632 ( 99.84%)    -0.57992 (  0.16%)    -0.51642
   ------------------------------------------------------------------------

   temp. (K)  partition function   enthalpy   heat capacity  entropy
                                   cal/mol     cal/K/mol   cal/K/mol   J/K/mol
 298.15  VIB  0.102E+04             4367.397     27.332     27.792
         ROT  0.172E+06              888.752      2.981     26.940
         INT  0.175E+09             5256.150     30.313     54.732
         TR   0.970E+27             1481.254      4.968     39.706
         TOT                        6737.4037    35.2815    94.4377   395.1272

       T/K    H(0)-H(T)+PV         H(T)/Eh          T*S/Eh         G(T)/Eh
   ------------------------------------------------------------------------
    298.15    0.107367E-01    0.226177E+00    0.448704E-01    0.181307E+00
   ------------------------------------------------------------------------

         :::::::::::::::::::::::::::::::::::::::::::::::::::::
         ::                  THERMODYNAMIC                  ::
         :::::::::::::::::::::::::::::::::::::::::::::::::::::
         :: total free energy         -22.976924697732 Eh   ::
         ::.................................................::
         :: total energy              -23.158231291425 Eh   ::
         :: zero point energy           0.215440236583 Eh   ::
         :: G(RRHO) w/o ZPVE           -0.034133642890 Eh   ::
         :: G(RRHO) contrib.            0.181306593693 Eh   ::
         :::::::::::::::::::::::::::::::::::::::::::::::::::::
 
 normal mode %tage of torsion character
   1:  0.00   2:  0.00   3:  0.00   4:  0.00   5:  0.00   6:  0.00   7:  0.41   8:  0.61
   9:  0.25  10:  0.63  11:  0.69  12:  0.89  13:  0.88  14:  0.16  15:  0.04  16:  0.08
  17:  0.04  18:  0.56  19:  0.48  20:  0.55  21:  0.55  22:  0.11  23:  0.45  24:  0.08
  25:  0.40  26:  0.06  27:  0.06  28:  0.04  29:  0.05  30:  0.03  31:  0.06  32:  0.59
  33:  0.45  34:  0.07  35:  0.26  36:  0.19  37:  0.15  38:  0.15  39:  0.07  40:  0.06
  41:  0.06  42:  0.06  43:  0.00  44:  0.00  45:  0.65  46:  0.64  47:  0.64  48:  0.64
  49:  0.58  50:  0.93  51:  0.93  52:  0.85  53:  0.85  54:  0.37  55:  0.39  56:  0.29
  57:  0.08  58:  0.01  59:  0.01  60:  0.01  61:  0.01  62:  0.01  63:  0.01  64:  0.07
  65:  0.07  66:  0.03  67:  0.03  68:  0.00  69:  0.00
 recommended # of modes for mode following           4

optimized geometry written to: xtbopt.xyz


           -------------------------------------------------
          | TOTAL ENERGY              -23.158231291425 Eh   |
          | TOTAL ENTHALPY            -22.932054318687 Eh   |
          | TOTAL FREE ENERGY         -22.976924697732 Eh   |
          | GRADIENT NORM               0.000211089453 Eh/α |
          | HOMO-LUMO GAP              12.788171727777 eV   |
           -------------------------------------------------

------------------------------------------------------------------------
 * finished run on 2024/04/23 at 12:10:20.988     
------------------------------------------------------------------------
 total:
 * wall-time:     0 d,  0 h,  0 min,  0.383 sec
 *  cpu-time:     0 d,  0 h,  0 min,  1.392 sec
 * ratio c/w:     3.639 speedup
 SCF:
 * wall-time:     0 d,  0 h,  0 min,  0.007 sec
 *  cpu-time:     0 d,  0 h,  0 min,  0.027 sec
 * ratio c/w:     3.690 speedup
 ANC optimizer:
 * wall-time:     0 d,  0 h,  0 min,  0.038 sec
 *  cpu-time:     0 d,  0 h,  0 min,  0.137 sec
 * ratio c/w:     3.632 speedup
 analytical hessian:
 * wall-time:     0 d,  0 h,  0 min,  0.274 sec
 *  cpu-time:     0 d,  0 h,  0 min,  1.081 sec
 * ratio c/w:     3.943 speedup

