23
 energy: -23.156840896909 gnorm: 0.024513853249 xtb: 6.6.1 (8d0f1dd)
C           -3.81434000000000        0.35665200000000        0.00023200000000
C           -2.55108200000000       -0.48993600000000       -0.00049200000000
C           -1.27461300000000        0.35251900000000       -0.00188600000000
C           -0.00003600000000       -0.49158400000000        0.00068100000000
C            1.27460300000000        0.35248500000000        0.00322300000000
C            2.55115800000000       -0.48997300000000       -0.00011600000000
C            3.81430500000000        0.35668700000000       -0.00151700000000
H           -3.85420500000000        1.00549900000000        0.87783400000000
H           -3.85738400000000        1.00312500000000       -0.87891000000000
H           -4.71985700000000       -0.25530700000000        0.00312500000000
H           -2.54313000000000       -1.15900500000000        0.87076300000000
H           -2.54483900000000       -1.15971000000000       -0.87122100000000
H           -1.27373400000000        1.01842400000000       -0.87410500000000
H           -1.27450700000000        1.02293000000000        0.86685500000000
H            0.00153600000000       -1.15921000000000       -0.87006800000000
H           -0.00169900000000       -1.15963400000000        0.87110300000000
H            1.27424500000000        1.01819600000000        0.87553000000000
H            1.27392600000000        1.02339100000000       -0.86516900000000
H            2.54587100000000       -1.16005100000000        0.87027500000000
H            2.54235900000000       -1.15856600000000       -0.87162200000000
H            4.71978600000000       -0.25523700000000       -0.00924600000000
H            3.86004900000000        0.99966000000000        0.87996300000000
H            3.85165100000000        1.00888100000000       -0.87658600000000
23
 energy: -23.158053459877 gnorm: 0.010960666372 xtb: 6.6.1 (8d0f1dd)
C           -3.80275956974390        0.35888692270805        0.00034816251630
C           -2.54195725293061       -0.49182988908451       -0.00042464190874
C           -1.27045417474882        0.35570948467585       -0.00184099486927
C           -0.00001405301552       -0.49267372311474        0.00059467224300
C            1.27044413838845        0.35569065860594        0.00298185109514
C            2.54199072573857       -0.49182396838843       -0.00005084379770
C            3.80276367090647        0.35892504341296       -0.00146780735561
H           -3.83824517737645        1.00017660690980        0.88093832109576
H           -3.84124067328756        0.99758652040910       -0.88194547547755
H           -4.69630095198136       -0.26492024195578        0.00285583714434
H           -2.54043204510385       -1.14471597034477        0.87943878837225
H           -2.54195012286799       -1.14553291208733       -0.87968717152399
H           -1.27107013359775        1.00628097185924       -0.88302110895056
H           -1.27184989891539        1.01042855941156        0.87625603289634
H            0.00159121446540       -1.14557060817854       -0.87894360175598
H           -0.00165724814076       -1.14584538735792        0.87993087035504
H            1.27165566507084        1.00573757159889        0.88452858739557
H            1.27123881823760        1.01100154319438       -0.87470325009197
H            2.54290559816590       -1.14607841695708        0.87876919711765
H            2.53956916764474       -1.14410411737884       -0.88032656291732
H            4.69629293116957       -0.26487492431609       -0.00881554247504
H            3.84383815196406        0.99439278563199        0.88302693342607
H            3.83570421995836        1.00338949074627       -0.87979625253373
23
 energy: -23.158223541859 gnorm: 0.001887796688 xtb: 6.6.1 (8d0f1dd)
C           -3.79689497627564        0.36004514579030        0.00032293084801
C           -2.53573948135984       -0.49364108555780       -0.00031958022781
C           -1.26775104247561        0.35761502946835       -0.00169083100413
C            0.00000333764365       -0.49367026259576        0.00055291538179
C            1.26775174948103        0.35761576340620        0.00281373033958
C            2.53574814771289       -0.49362643711138       -0.00020303805277
C            3.79689977586762        0.36007457233060       -0.00136464186291
H           -3.82776596016305        0.99807759957339        0.88132363725290
H           -3.83053559057122        0.99555291034084       -0.88239367606426
H           -4.68481056439901       -0.26877566980906        0.00261460981337
H           -2.53562519187881       -1.13889902285399        0.88186562080323
H           -2.53704232374339       -1.13982328055912       -0.88182172868604
H           -1.26876657837284        1.00145351712797       -0.88506437535849
H           -1.26945081926799        1.00518485573498        0.87896176567015
H            0.00154615152757       -1.13983033545520       -0.88129519052243
H           -0.00155050875575       -1.14000247578412        0.88226982860536
H            1.26933866833718        1.00079314046824        0.88667094642597
H            1.26887406030819        1.00583300551586       -0.87736797231548
H            2.53788906066897       -1.14046367302366        0.88081238355138
H            2.53481178545455       -1.13822591263375       -0.88287971943989
H            4.68480952690032       -0.26872981210322       -0.00825746519919
H            3.83299185245735        0.99260227848989        0.88339572590347
H            3.82533192090384        1.00107614924046       -0.88029987586182
23
 energy: -23.158230342231 gnorm: 0.000814325816 xtb: 6.6.1 (8d0f1dd)
C           -3.79545478975078        0.36010381770000        0.00026925989609
C           -2.53367003636835       -0.49460961714964       -0.00021358688557
C           -1.26700883739205        0.35819504872187       -0.00148612718541
C            0.00000419173740       -0.49387582114728        0.00054980606569
C            1.26701269733278        0.35819982913393        0.00260374454569
C            2.53367781359163       -0.49459193181373       -0.00035594405502
C            3.79545785279300        0.36012832482297       -0.00128970322187
H           -3.82400892629058        0.99787808480102        0.88109706024939
H           -3.82648273770892        0.99545380508219       -0.88222704668897
H           -4.68325102189371       -0.26813170384883        0.00238402937297
H           -2.53275693496288       -1.13913320081101        0.88166793022644
H           -2.53402375550486       -1.14016074827876       -0.88133901578522
H           -1.26764614454330        1.00187821786127       -0.88423740358950
H           -1.26822058352828        1.00523348343037        0.87881712630407
H            0.00142795686206       -1.13965220130172       -0.88081769724402
H           -0.00141772001794       -1.13981979198020        0.88178884187857
H            1.26821373197412        1.00114131368680        0.88588972609295
H            1.26765474737622        1.00597372832953       -0.87716122643455
H            2.53482285294633       -1.14088471887844        0.88022257003011
H            2.53198417817900       -1.13837812997219       -0.88278093913768
H            4.68324727429591       -0.26808643919547       -0.00766438485746
H            3.82874996287620        0.99270195786795        0.88311199457831
H            3.82175122799701        1.00067269293937       -0.88018301415500
23
 energy: -23.158231291419 gnorm: 0.000210986440 xtb: 6.6.1 (8d0f1dd)
C           -3.79511225249140        0.36008771051282        0.00022625940855
C           -2.53354047787204       -0.49474804376548       -0.00011122376991
C           -1.26702574438837        0.35804082140106       -0.00130585165447
C            0.00000439276334       -0.49382149273227        0.00053689025699
C            1.26703091307096        0.35804719953771        0.00243903578713
C            2.53354958704451       -0.49473198428511       -0.00050871093103
C            3.79511441630382        0.36011341868473       -0.00122110370580
H           -3.82329210037151        0.99796838959604        0.88109803342636
H           -3.82550587011168        0.99561968168006       -0.88226595948263
H           -4.68359304996396       -0.26720298147852        0.00218624401045
H           -2.53234342145277       -1.13971022005328        0.88169063332380
H           -2.53345201027189       -1.14078295785321       -0.88112475082922
H           -1.26757600138705        1.00236684233189       -0.88383321934074
H           -1.26807708504781        1.00544435519218        0.87897223532458
H            0.00130358969175       -1.14005604430567       -0.88072113747161
H           -0.00129260213415       -1.14023031997851        0.88166058144855
H            1.26815464474315        1.00159365062441        0.88553043868766
H            1.26750123830418        1.00622928838924       -0.87726982895507
H            2.53424031149445       -1.14155500331451        0.87992152144586
H            2.53158044743691       -1.13890558795796       -0.88288933757853
H            4.68358897247855       -0.26716091365436       -0.00716194767401
H            3.82761305359988        0.99303402644873        0.88306771737771
H            3.82119204856109        1.00059616498003       -0.88027051910460
