 Entering Gaussian System
 *********************************************
 Gaussian 98:
 frequency output generated by the xtb code
 *********************************************
                         Standard orientation:
 --------------------------------------------------------------------
  Center     Atomic     Atomic              Coordinates (Angstroms)
  Number     Number      Type              X           Y           Z
 --------------------------------------------------------------------
    1          6             0       -2.548797    2.584815   -0.219308
    2          6             0       -2.229445    1.243051    0.427788
    3          6             0       -2.679669    0.073320   -0.445131
    4          6             0       -2.516102   -1.290322    0.230129
    5          6             0       -1.074164   -1.662150    0.580614
    6          6             0       -0.194317   -1.876030   -0.648516
    7          6             0        1.253400   -2.228158   -0.301513
    8          6             0        2.014423   -1.142125    0.463132
    9          6             0        2.070084    0.196194   -0.270041
   10          6             0        2.956974    1.207357    0.451919
   11          6             0        2.945478    2.563389   -0.243612
   12          1             0       -2.207786    3.404149    0.409831
   13          1             0       -3.620587    2.691972   -0.370791
   14          1             0       -2.058347    2.668430   -1.186819
   15          1             0       -1.154099    1.183866    0.602039
   16          1             0       -2.727115    1.180054    1.398108
   17          1             0       -2.128126    0.091384   -1.386772
   18          1             0       -3.736902    0.207317   -0.688774
   19          1             0       -2.928969   -2.058018   -0.429399
   20          1             0       -3.107935   -1.293840    1.149231
   21          1             0       -1.086631   -2.584827    1.166662
   22          1             0       -0.648885   -0.882542    1.211257
   23          1             0       -0.203324   -0.983100   -1.272722
   24          1             0       -0.614321   -2.692091   -1.242498
   25          1             0        1.787849   -2.438226   -1.231610
   26          1             0        1.262528   -3.142966    0.296586
   27          1             0        1.563909   -0.996362    1.446746
   28          1             0        3.035852   -1.495656    0.627360
   29          1             0        2.451006    0.039665   -1.281937
   30          1             0        1.065779    0.613755   -0.353960
   31          1             0        2.606192    1.324823    1.479839
   32          1             0        3.980171    0.828120    0.494588
   33          1             0        1.936357    2.968614   -0.271039
   34          1             0        3.303211    2.469977   -1.266431
   35          1             0        3.584247    3.270515    0.279888
 --------------------------------------------------------------------
     1 basis functions        1 primitive gaussians
     1 alpha electrons        1 beta electrons
 
 Harmonic frequencies (cm**-1), IR intensities (km*mol⁻¹),
 Raman scattering activities (A**4/amu), Raman depolarization ratios,
 reduced masses (AMU), force constants (mDyne/A) and normal coordinates:
                      1                      2                      3
                        a                      a                      a 
 Frequencies --     5.2282                25.9755                37.4999
 Red. masses --     8.9275                 8.8010                 7.5089
 Frc consts  --     0.0000                 0.0000                 0.0000
 IR Inten    --     0.0012                 0.0016                 0.0039
 Raman Activ --     0.0000                 0.0000                 0.0000
 Depolar     --     0.0000                 0.0000                 0.0000
 Atom AN      X      Y      Z        X      Y      Z        X      Y      Z
   1   6     0.38   0.09   0.22     0.24   0.02  -0.30    -0.31   0.12   0.02
   2   6     0.10  -0.01   0.16     0.18   0.09  -0.11    -0.37   0.15   0.11
   3   6     0.23   0.13  -0.08     0.04  -0.00   0.10     0.12   0.10  -0.08
   4   6     0.02   0.03  -0.22     0.08   0.07   0.24     0.14   0.11  -0.08
   5   6    -0.06  -0.12  -0.07     0.12   0.06   0.09     0.14   0.17  -0.01
   6   6     0.05  -0.20   0.02    -0.04  -0.04  -0.01     0.11  -0.09   0.02
   7   6     0.04  -0.09   0.16    -0.01  -0.07  -0.17     0.09  -0.14   0.05
   8   6    -0.06   0.03   0.09     0.07  -0.13  -0.17     0.13  -0.13   0.00
   9   6    -0.13  -0.03  -0.03    -0.12  -0.03  -0.00    -0.07  -0.09   0.07
  10   6    -0.24   0.11  -0.07    -0.13  -0.05   0.04     0.17  -0.14  -0.13
  11   6    -0.33   0.05  -0.19    -0.43   0.08   0.29    -0.13  -0.06   0.03
  12   1     0.08  -0.00   0.12     0.10   0.03  -0.13    -0.20   0.04   0.05
  13   1     0.12   0.06  -0.02     0.07   0.02  -0.07    -0.08  -0.01  -0.12
  14   1     0.19   0.05   0.11     0.06  -0.05  -0.10     0.02   0.06   0.06
  15   1     0.01  -0.03   0.13     0.05   0.01  -0.05    -0.12   0.09   0.15
  16   1    -0.05  -0.02   0.01     0.07   0.08  -0.02    -0.21   0.02  -0.02
  17   1     0.12   0.06   0.01    -0.02  -0.04   0.01     0.12   0.07   0.03
  18   1     0.08   0.06  -0.08     0.00  -0.00   0.06     0.05  -0.02  -0.12
  19   1     0.01   0.04  -0.11    -0.01   0.00   0.11     0.06   0.03  -0.03
  20   1    -0.03  -0.01  -0.09     0.06   0.06   0.09     0.02   0.03  -0.03
  21   1    -0.06  -0.04  -0.02     0.05   0.03   0.04     0.04   0.08   0.05
  22   1    -0.01  -0.05  -0.00     0.06   0.03  -0.01     0.05   0.08  -0.05
  23   1     0.02  -0.08  -0.02    -0.02  -0.02  -0.02     0.05  -0.06  -0.04
  24   1     0.04  -0.08   0.02    -0.04  -0.01   0.02     0.01  -0.05   0.04
  25   1     0.03  -0.05   0.06    -0.03  -0.00  -0.07     0.03  -0.06   0.02
  26   1     0.01  -0.01   0.08     0.01  -0.03  -0.07     0.02  -0.03   0.02
  27   1    -0.03   0.03   0.02     0.07  -0.08  -0.02     0.07  -0.06   0.02
  28   1    -0.01   0.03   0.05     0.03  -0.03  -0.11     0.05  -0.02  -0.05
  29   1    -0.02  -0.03   0.00    -0.06   0.04  -0.02    -0.11  -0.01  -0.01
  30   1    -0.04  -0.03  -0.03    -0.05  -0.03   0.05    -0.03  -0.02   0.12
  31   1    -0.09   0.05  -0.03     0.01  -0.08   0.03     0.16  -0.08   0.00
  32   1    -0.06   0.06   0.00    -0.02   0.02  -0.06     0.06  -0.03  -0.16
  33   1    -0.11  -0.01  -0.08    -0.14  -0.01   0.16    -0.04  -0.02   0.14
  34   1    -0.08  -0.00  -0.05    -0.18   0.09   0.06    -0.16   0.02  -0.04
  35   1    -0.12   0.04  -0.06    -0.12   0.02   0.09     0.02  -0.03  -0.04
                      4                      5                      6
                        a                      a                      a 
 Frequencies --    54.3854                67.9255               108.0753
 Red. masses --     6.8144                 6.0640                 8.1006
 Frc consts  --     0.0000                 0.0000                 0.0000
 IR Inten    --     0.0121                 0.0065                 0.0096
 Raman Activ --     0.0000                 0.0000                 0.0000
 Depolar     --     0.0000                 0.0000                 0.0000
 Atom AN      X      Y      Z        X      Y      Z        X      Y      Z
   1   6    -0.35   0.11   0.13    -0.19   0.02   0.19     0.04  -0.01   0.01
   2   6     0.13   0.12  -0.08     0.38  -0.03  -0.21    -0.11  -0.03   0.03
   3   6     0.09   0.09  -0.02     0.04   0.03  -0.12    -0.10  -0.00  -0.01
   4   6     0.11   0.12   0.02    -0.04   0.02  -0.13    -0.11  -0.02  -0.04
   5   6     0.12   0.14   0.00    -0.08  -0.03  -0.03    -0.13  -0.00   0.04
   6   6     0.05  -0.11  -0.01     0.02  -0.00   0.04    -0.03   0.09   0.08
   7   6     0.05  -0.13  -0.01    -0.01  -0.01   0.15    -0.06   0.01   0.14
   8   6     0.07  -0.12  -0.05    -0.03   0.02   0.13     0.05   0.03  -0.01
   9   6     0.17  -0.17  -0.13    -0.08   0.00   0.09     0.50  -0.16  -0.32
  10   6    -0.30   0.03   0.17     0.20  -0.06  -0.16     0.21  -0.04  -0.12
  11   6    -0.09  -0.08  -0.03    -0.17   0.03   0.03    -0.23   0.12   0.19
  12   1    -0.08   0.04   0.02     0.05  -0.01   0.02     0.00  -0.01   0.02
  13   1    -0.12  -0.02   0.16    -0.09  -0.02   0.27     0.02   0.02  -0.03
  14   1    -0.21   0.08  -0.02    -0.25   0.06  -0.04     0.05  -0.01   0.02
  15   1     0.06   0.09  -0.12     0.14   0.03  -0.24    -0.04  -0.03   0.04
  16   1     0.13  -0.01   0.02     0.27  -0.07   0.02    -0.06  -0.00  -0.00
  17   1     0.01   0.02  -0.02    -0.04  -0.02  -0.07    -0.02   0.01   0.00
  18   1     0.02   0.02   0.01     0.00   0.05   0.03    -0.03   0.00  -0.01
  19   1     0.03   0.03   0.02    -0.01   0.01  -0.05    -0.02  -0.00  -0.03
  20   1     0.04   0.05   0.01    -0.03   0.01  -0.05    -0.05  -0.02  -0.02
  21   1     0.04   0.07   0.05    -0.04  -0.01  -0.02    -0.04  -0.01  -0.01
  22   1     0.05   0.07  -0.05    -0.03  -0.02   0.01    -0.05  -0.01   0.03
  23   1     0.01  -0.06  -0.05     0.02   0.00   0.02     0.01   0.04   0.05
  24   1    -0.01  -0.06   0.04     0.02   0.00  -0.00    -0.00   0.04  -0.00
  25   1     0.01  -0.05  -0.00     0.01  -0.02   0.06    -0.02  -0.05   0.05
  26   1     0.01  -0.03   0.01    -0.02   0.01   0.06    -0.05   0.03   0.08
  27   1     0.01  -0.01  -0.02    -0.00   0.01   0.04    -0.03   0.12  -0.04
  28   1     0.01  -0.05   0.01    -0.00   0.01   0.03    -0.02  -0.05   0.08
  29   1     0.18  -0.05   0.01    -0.10  -0.01  -0.00     0.27  -0.12  -0.03
  30   1     0.04  -0.10  -0.16    -0.02   0.03   0.10     0.16  -0.03  -0.25
  31   1    -0.24   0.04  -0.01     0.19  -0.06   0.00     0.05  -0.10  -0.03
  32   1    -0.08   0.04   0.22     0.07  -0.01  -0.19     0.09   0.08  -0.05
  33   1    -0.04  -0.07  -0.20    -0.05   0.01   0.18    -0.10  -0.05   0.10
  34   1     0.15  -0.05   0.06    -0.21   0.05  -0.05    -0.08   0.14   0.04
  35   1    -0.15   0.03   0.07     0.03  -0.01  -0.07    -0.12   0.05   0.09
                      7                      8                      9
                        a                      a                      a 
 Frequencies --   148.5457               192.5134               200.0812
 Red. masses --     8.6563                 6.7901                 7.3854
 Frc consts  --     0.0000                 0.0000                 0.0000
 IR Inten    --     0.0677                 0.1808                 0.0115
 Raman Activ --     0.0000                 0.0000                 0.0000
 Depolar     --     0.0000                 0.0000                 0.0000
 Atom AN      X      Y      Z        X      Y      Z        X      Y      Z
   1   6    -0.08   0.00  -0.00     0.15   0.03   0.03    -0.14   0.01  -0.16
   2   6     0.06   0.03  -0.02    -0.12  -0.03   0.05     0.07   0.18   0.11
   3   6     0.21   0.00  -0.07    -0.37   0.01   0.12     0.17   0.07   0.20
   4   6    -0.00   0.02   0.03     0.06  -0.03  -0.06     0.08   0.03   0.16
   5   6    -0.06  -0.11   0.12     0.18   0.28  -0.21     0.07  -0.27  -0.17
   6   6    -0.12  -0.39   0.12     0.11  -0.24  -0.17     0.02  -0.09  -0.24
   7   6    -0.03  -0.05   0.05     0.09  -0.07   0.10     0.03   0.07  -0.11
   8   6    -0.14   0.20  -0.20    -0.14   0.09   0.10    -0.33   0.08   0.22
   9   6    -0.12   0.16  -0.28    -0.04  -0.00  -0.05     0.10  -0.05   0.03
  10   6    -0.03  -0.03  -0.10    -0.01  -0.03  -0.03     0.05  -0.01   0.03
  11   6     0.27   0.17   0.30     0.05   0.02   0.06    -0.07  -0.04  -0.05
  12   1    -0.07   0.01   0.01     0.23  -0.01  -0.06    -0.11   0.06  -0.08
  13   1    -0.02  -0.04  -0.02     0.04   0.14   0.14    -0.04  -0.08  -0.08
  14   1    -0.01   0.03   0.01    -0.07  -0.09  -0.06    -0.02  -0.02  -0.04
  15   1     0.02   0.04   0.01    -0.03  -0.06  -0.02     0.02   0.09   0.04
  16   1     0.01  -0.01  -0.01    -0.01   0.03   0.03     0.01   0.08   0.03
  17   1     0.11  -0.02   0.01    -0.20   0.04  -0.02     0.06   0.01   0.07
  18   1     0.08   0.01  -0.08    -0.13  -0.02   0.15     0.05   0.02   0.04
  19   1    -0.02   0.01   0.02     0.05  -0.02  -0.02    -0.07   0.04   0.06
  20   1    -0.01   0.05   0.00     0.05  -0.08   0.00     0.08   0.03   0.09
  21   1    -0.05  -0.00   0.08     0.11   0.16   0.07     0.01  -0.11  -0.11
  22   1     0.01  -0.01  -0.01     0.05   0.18  -0.18     0.06  -0.13  -0.01
  23   1    -0.08  -0.17  -0.04     0.02  -0.15  -0.16    -0.01  -0.01  -0.04
  24   1    -0.02  -0.18   0.12     0.04  -0.15   0.06     0.03  -0.02  -0.09
  25   1    -0.02  -0.04   0.01     0.08  -0.05   0.07     0.07   0.10  -0.01
  26   1     0.06   0.02   0.07     0.01   0.01   0.07     0.02  -0.01  -0.08
  27   1    -0.04   0.09  -0.06    -0.10   0.06  -0.00    -0.24   0.06  -0.01
  28   1    -0.03   0.08  -0.03    -0.04   0.05   0.11    -0.13   0.02   0.23
  29   1    -0.02   0.04  -0.08     0.02  -0.04   0.00     0.11  -0.09   0.05
  30   1    -0.03   0.06  -0.09    -0.00   0.01  -0.06     0.05   0.02  -0.11
  31   1    -0.01  -0.07  -0.02     0.00  -0.02  -0.01     0.02   0.00   0.01
  32   1    -0.03  -0.06  -0.04    -0.01  -0.02  -0.02     0.02   0.01   0.01
  33   1     0.10   0.12   0.11     0.03   0.05   0.08    -0.00   0.03   0.12
  34   1     0.09   0.12   0.08    -0.04   0.01  -0.00    -0.17  -0.05  -0.06
  35   1     0.12  -0.04   0.16     0.07  -0.04   0.00     0.09  -0.03  -0.12
                     10                     11                     12
                        a                      a                      a 
 Frequencies --   221.4383               231.5190               246.9851
 Red. masses --     4.3998                 3.0754                 5.7718
 Frc consts  --     0.0000                 0.0000                 0.0000
 IR Inten    --     0.0307                 0.0672                 0.0230
 Raman Activ --     0.0000                 0.0000                 0.0000
 Depolar     --     0.0000                 0.0000                 0.0000
 Atom AN      X      Y      Z        X      Y      Z        X      Y      Z
   1   6    -0.07   0.05  -0.16     0.00   0.01  -0.02     0.06  -0.07   0.09
   2   6    -0.12   0.18   0.16    -0.11   0.02   0.05    -0.11  -0.14   0.01
   3   6     0.01   0.12   0.16     0.05   0.03  -0.04     0.26  -0.11  -0.22
   4   6    -0.03   0.00  -0.07    -0.04  -0.00  -0.07     0.07   0.01   0.05
   5   6    -0.09  -0.29  -0.08    -0.08  -0.07   0.09     0.07   0.19   0.16
   6   6     0.07  -0.07  -0.01    -0.02  -0.01   0.11    -0.13   0.05   0.05
   7   6     0.06  -0.06   0.08     0.02  -0.02  -0.03    -0.06   0.14  -0.22
   8   6     0.13  -0.01  -0.03     0.18  -0.06  -0.13    -0.24   0.03   0.09
   9   6    -0.04   0.03   0.03     0.12  -0.01  -0.04     0.03  -0.01   0.05
  10   6     0.08  -0.00  -0.07    -0.16   0.10   0.15     0.11  -0.04  -0.01
  11   6     0.01   0.05   0.02     0.04   0.01  -0.04    -0.07  -0.06  -0.03
  12   1     0.26   0.06  -0.26     0.22   0.00  -0.12     0.28  -0.05  -0.08
  13   1    -0.05   0.14   0.22    -0.01   0.12   0.19     0.00   0.13   0.25
  14   1    -0.27  -0.20  -0.19    -0.17  -0.12  -0.11    -0.18  -0.13  -0.08
  15   1    -0.04   0.05   0.09    -0.04   0.00   0.06    -0.05  -0.03   0.09
  16   1    -0.07   0.09   0.03    -0.07   0.01  -0.01    -0.11  -0.08  -0.04
  17   1     0.03   0.07   0.06     0.06   0.02   0.02     0.20  -0.04   0.01
  18   1     0.01   0.03   0.02     0.02   0.00  -0.06     0.11  -0.04  -0.20
  19   1    -0.03   0.05  -0.07     0.01   0.01  -0.05     0.04  -0.04   0.05
  20   1    -0.01  -0.04  -0.02    -0.05  -0.01  -0.04    -0.01   0.06  -0.00
  21   1    -0.08  -0.13  -0.10    -0.05  -0.03   0.01     0.06   0.09   0.10
  22   1    -0.01  -0.15   0.05    -0.03  -0.04   0.05     0.01   0.11  -0.02
  23   1     0.03   0.01   0.03    -0.01   0.01   0.04    -0.07  -0.01  -0.01
  24   1     0.05  -0.00  -0.05    -0.01   0.01   0.02    -0.07  -0.01   0.06
  25   1     0.02  -0.05   0.03    -0.03  -0.01  -0.03    -0.03   0.16  -0.10
  26   1     0.01   0.00   0.05     0.02  -0.01  -0.01     0.04  -0.02  -0.16
  27   1     0.08  -0.02   0.01     0.09  -0.03  -0.01    -0.15   0.01  -0.01
  28   1     0.05   0.01  -0.06     0.06  -0.03  -0.09    -0.09  -0.01   0.11
  29   1    -0.08   0.03  -0.02     0.10   0.02   0.01     0.02  -0.04   0.03
  30   1    -0.02   0.01   0.08     0.02  -0.04  -0.07     0.03   0.03  -0.02
  31   1     0.06  -0.02  -0.01    -0.13   0.06   0.01     0.06  -0.02   0.01
  32   1     0.02  -0.00  -0.06    -0.05   0.03   0.14     0.04  -0.00  -0.04
  33   1    -0.04  -0.11  -0.19     0.09   0.23   0.31    -0.05  -0.10  -0.08
  34   1     0.22   0.08   0.08    -0.36  -0.13  -0.13     0.06   0.00   0.02
  35   1    -0.19   0.08   0.16     0.35  -0.12  -0.26    -0.11   0.04   0.03
                     13                     14                     15
                        a                      a                      a 
 Frequencies --   260.3335               293.3688               328.3576
 Red. masses --     7.9417                 6.7931                 7.9923
 Frc consts  --     0.0000                 0.0000                 0.0000
 IR Inten    --     0.1078                 0.7667                 0.2052
 Raman Activ --     0.0000                 0.0000                 0.0000
 Depolar     --     0.0000                 0.0000                 0.0000
 Atom AN      X      Y      Z        X      Y      Z        X      Y      Z
   1   6     0.01   0.13   0.03    -0.06  -0.22  -0.17    -0.02  -0.28  -0.04
   2   6    -0.03   0.05  -0.09     0.20   0.05   0.26     0.12  -0.11   0.18
   3   6    -0.18   0.05  -0.02     0.07   0.13   0.23     0.17   0.01   0.02
   4   6    -0.12   0.02  -0.03     0.03  -0.14  -0.35    -0.15   0.06   0.08
   5   6    -0.14  -0.11   0.05    -0.03   0.19   0.15    -0.07   0.19  -0.24
   6   6    -0.14  -0.43   0.09    -0.06   0.03   0.16    -0.18  -0.08  -0.26
   7   6     0.10   0.08  -0.23    -0.01   0.07  -0.11    -0.26  -0.07   0.14
   8   6     0.12  -0.06  -0.00    -0.05   0.00  -0.01     0.07  -0.06  -0.08
   9   6     0.22   0.07   0.23    -0.02  -0.01  -0.02     0.13   0.09   0.14
  10   6     0.24   0.16   0.13    -0.00  -0.04  -0.00     0.14   0.17   0.11
  11   6    -0.05   0.05  -0.11    -0.02  -0.05   0.00     0.00   0.11  -0.06
  12   1    -0.04   0.01   0.06    -0.11   0.04  -0.13    -0.04  -0.02  -0.08
  13   1     0.01   0.03  -0.04    -0.02  -0.18  -0.11    -0.01  -0.14  -0.01
  14   1     0.05   0.09   0.04     0.01  -0.13  -0.04    -0.02  -0.13  -0.02
  15   1    -0.00  -0.01  -0.06     0.07   0.05   0.03     0.03  -0.00   0.07
  16   1     0.02   0.02  -0.01     0.09   0.05   0.09     0.01  -0.04   0.04
  17   1    -0.09   0.01  -0.03    -0.02   0.11   0.04     0.13  -0.02   0.05
  18   1    -0.06   0.01   0.04     0.01   0.07   0.12     0.08   0.07  -0.08
  19   1    -0.04   0.01  -0.01     0.18   0.03  -0.29    -0.10   0.01   0.08
  20   1    -0.04   0.01  -0.01    -0.15  -0.23  -0.20     0.02   0.08   0.06
  21   1    -0.08   0.00   0.07     0.02   0.10   0.11     0.04   0.10   0.00
  22   1    -0.02  -0.01  -0.03    -0.07   0.13  -0.01     0.01   0.11  -0.16
  23   1    -0.15  -0.19  -0.08    -0.05  -0.01   0.02    -0.02  -0.07  -0.14
  24   1     0.00  -0.23   0.13    -0.04  -0.01   0.09    -0.04  -0.07  -0.02
  25   1    -0.02   0.16  -0.13    -0.04   0.09  -0.07    -0.04  -0.18   0.09
  26   1     0.16  -0.04  -0.16     0.04  -0.02  -0.09    -0.16   0.05   0.16
  27   1     0.03  -0.07   0.01    -0.04  -0.01  -0.01     0.11  -0.03   0.02
  28   1     0.03  -0.05  -0.02    -0.02   0.00   0.02     0.02  -0.08  -0.12
  29   1     0.05   0.04   0.06     0.00  -0.01  -0.00     0.02   0.06   0.03
  30   1     0.06   0.01   0.07    -0.00   0.00  -0.01     0.03   0.02   0.06
  31   1     0.10   0.07   0.04     0.00  -0.02   0.00     0.05   0.07   0.03
  32   1     0.08   0.08   0.01    -0.00  -0.01  -0.01     0.05   0.07   0.03
  33   1    -0.04  -0.06  -0.06    -0.01  -0.02  -0.00    -0.01   0.00  -0.02
  34   1    -0.00  -0.02  -0.02    -0.00  -0.01   0.00    -0.01   0.00  -0.02
  35   1    -0.07   0.09  -0.07    -0.01  -0.01   0.00    -0.01   0.07  -0.05
                     16                     17                     18
                        a                      a                      a 
 Frequencies --   400.6560               419.4577               478.4892
 Red. masses --     8.6730                 8.4055                 8.3992
 Frc consts  --     0.0000                 0.0000                 0.0000
 IR Inten    --     0.0244                 0.0460                 0.2906
 Raman Activ --     0.0000                 0.0000                 0.0000
 Depolar     --     0.0000                 0.0000                 0.0000
 Atom AN      X      Y      Z        X      Y      Z        X      Y      Z
   1   6    -0.00  -0.03  -0.00     0.01   0.27   0.00     0.00   0.27  -0.01
   2   6     0.01  -0.01   0.01    -0.06   0.13  -0.13     0.02   0.15  -0.08
   3   6    -0.00   0.01  -0.01     0.06  -0.13   0.09     0.18  -0.22   0.17
   4   6    -0.03   0.02   0.00     0.26  -0.26  -0.07    -0.18  -0.38   0.07
   5   6    -0.02   0.03   0.00     0.18  -0.11   0.14    -0.07   0.02  -0.12
   6   6    -0.02   0.02  -0.00    -0.14   0.00  -0.05    -0.10   0.03  -0.14
   7   6    -0.02  -0.14  -0.10    -0.29  -0.23   0.01    -0.05   0.33   0.08
   8   6     0.01  -0.33   0.25    -0.22  -0.09  -0.14     0.22   0.05   0.16
   9   6    -0.01  -0.29   0.12     0.07   0.10   0.10    -0.02  -0.11  -0.03
  10   6    -0.13   0.21  -0.29     0.13   0.16   0.09    -0.09  -0.09  -0.09
  11   6     0.18   0.47   0.01     0.01   0.13  -0.05     0.00  -0.06   0.03
  12   1    -0.00  -0.00  -0.01     0.03   0.02   0.05     0.02   0.03   0.05
  13   1    -0.00  -0.01  -0.00     0.01   0.13   0.01     0.00   0.11   0.01
  14   1    -0.00  -0.01  -0.00     0.00   0.12   0.01     0.00   0.13   0.00
  15   1     0.00  -0.00   0.00    -0.01   0.05  -0.03     0.01   0.09  -0.02
  16   1     0.00  -0.01   0.00    -0.01   0.05  -0.03     0.01   0.07  -0.02
  17   1     0.01   0.00   0.00    -0.02  -0.02   0.00     0.14  -0.13   0.10
  18   1     0.00   0.01  -0.01     0.00  -0.10   0.06     0.08  -0.03  -0.07
  19   1    -0.01   0.00   0.00     0.19  -0.04  -0.13    -0.02  -0.06  -0.05
  20   1    -0.01   0.01   0.00    -0.02  -0.19  -0.08    -0.07  -0.18   0.01
  21   1    -0.00   0.01   0.01     0.09  -0.03   0.04     0.13   0.06   0.04
  22   1    -0.01   0.01  -0.00     0.04  -0.01   0.02    -0.06   0.11  -0.13
  23   1     0.01   0.02   0.02    -0.01   0.04   0.04    -0.09  -0.05  -0.12
  24   1    -0.03   0.03  -0.02    -0.11   0.06  -0.04     0.06  -0.09   0.03
  25   1    -0.01   0.06  -0.05    -0.06  -0.21   0.05     0.01   0.13   0.03
  26   1    -0.01  -0.10  -0.13    -0.16   0.00   0.12    -0.03   0.06  -0.02
  27   1    -0.04  -0.12   0.06    -0.07  -0.03  -0.04     0.16   0.02   0.09
  28   1    -0.01  -0.11   0.09    -0.08  -0.06  -0.03     0.07  -0.02  -0.07
  29   1    -0.02  -0.15   0.04     0.03   0.05   0.03    -0.01  -0.06  -0.01
  30   1    -0.02  -0.14   0.01     0.04   0.07   0.02    -0.02  -0.08  -0.01
  31   1    -0.02   0.08  -0.08     0.05   0.07   0.03    -0.04  -0.04  -0.03
  32   1    -0.03   0.08  -0.07     0.04   0.06   0.02    -0.03  -0.03  -0.01
  33   1     0.09   0.24   0.02    -0.01   0.01  -0.02     0.01   0.01   0.02
  34   1     0.09   0.24   0.01    -0.00   0.02  -0.01     0.01   0.01   0.01
  35   1     0.10   0.00   0.13    -0.01   0.07  -0.04     0.01  -0.05   0.04
                     19                     20                     21
                        a                      a                      a 
 Frequencies --   519.5542               746.0706               768.7319
 Red. masses --     8.0854                 2.5449                 2.1667
 Frc consts  --     0.0000                 0.0000                 0.0000
 IR Inten    --     1.1079                 7.2335                24.8354
 Raman Activ --     0.0000                 0.0000                 0.0000
 Depolar     --     0.0000                 0.0000                 0.0000
 Atom AN      X      Y      Z        X      Y      Z        X      Y      Z
   1   6     0.00   0.10  -0.01    -0.00   0.03  -0.00     0.01   0.03  -0.01
   2   6     0.04   0.07  -0.00     0.07   0.03   0.03     0.11   0.02  -0.01
   3   6     0.05  -0.09   0.11     0.09   0.00  -0.07     0.12  -0.02  -0.06
   4   6    -0.39  -0.18   0.08     0.06  -0.10  -0.11     0.01  -0.09  -0.06
   5   6    -0.19   0.14  -0.08    -0.02  -0.14  -0.09    -0.05  -0.05   0.01
   6   6     0.25   0.04   0.11    -0.04  -0.13   0.09    -0.04   0.04   0.02
   7   6     0.27  -0.36  -0.11    -0.10  -0.05   0.11     0.03   0.08  -0.05
   8   6    -0.12  -0.04  -0.15    -0.08   0.04   0.06     0.12  -0.03  -0.05
   9   6    -0.01   0.10  -0.01    -0.05   0.05  -0.02     0.12  -0.06  -0.04
  10   6     0.06   0.05   0.07     0.01   0.01   0.02     0.05  -0.03  -0.07
  11   6    -0.00   0.03  -0.02     0.00  -0.00   0.00     0.00  -0.01  -0.01
  12   1    -0.00   0.02   0.01    -0.02   0.02  -0.01    -0.03   0.02   0.00
  13   1     0.00   0.03  -0.00    -0.01  -0.04   0.03    -0.02  -0.07   0.07
  14   1     0.00   0.05   0.00    -0.04   0.03  -0.02    -0.07   0.07  -0.03
  15   1     0.01   0.05  -0.01    -0.01   0.05   0.18    -0.01   0.04   0.26
  16   1     0.03   0.04   0.01    -0.13  -0.01  -0.07    -0.21  -0.00  -0.12
  17   1     0.13  -0.11   0.10    -0.18   0.05  -0.13    -0.20   0.02  -0.15
  18   1     0.06   0.05  -0.11    -0.03   0.01   0.21    -0.03   0.03   0.25
  19   1    -0.14  -0.03   0.02    -0.15  -0.04   0.10    -0.11  -0.04   0.07
  20   1    -0.07  -0.05   0.05     0.12   0.14   0.04     0.06   0.11   0.02
  21   1     0.03   0.10   0.07     0.08   0.13   0.24     0.04   0.03   0.08
  22   1    -0.15   0.14  -0.08    -0.00   0.17  -0.28    -0.08   0.07  -0.05
  23   1     0.21   0.06   0.10     0.09   0.15   0.28    -0.10   0.00  -0.01
  24   1     0.01   0.11  -0.06    -0.01   0.16  -0.25     0.02  -0.03   0.04
  25   1     0.04  -0.09  -0.05    -0.04   0.20  -0.03    -0.00  -0.11   0.01
  26   1     0.12  -0.09  -0.02     0.12  -0.10  -0.11    -0.07   0.07   0.07
  27   1    -0.19  -0.02  -0.11     0.20  -0.03   0.12    -0.20   0.10  -0.13
  28   1    -0.03   0.07   0.12     0.02   0.02  -0.22    -0.03  -0.06   0.27
  29   1    -0.00   0.07  -0.01     0.11  -0.07   0.05    -0.28   0.11  -0.14
  30   1     0.01   0.07   0.02     0.02   0.07  -0.16    -0.01  -0.04   0.35
  31   1     0.02   0.02   0.02     0.05  -0.00   0.02    -0.22   0.04  -0.10
  32   1     0.02   0.02   0.01    -0.00  -0.02  -0.04     0.01   0.03   0.24
  33   1    -0.01  -0.01  -0.01    -0.00  -0.01  -0.01    -0.02  -0.05   0.07
  34   1    -0.01  -0.01  -0.01     0.00  -0.01   0.00    -0.04   0.09  -0.02
  35   1    -0.01   0.03  -0.03    -0.00   0.01  -0.01    -0.02  -0.01   0.02
                     22                     23                     24
                        a                      a                      a 
 Frequencies --   783.9905               812.3199               842.6860
 Red. masses --     2.3302                 3.1551                 4.5688
 Frc consts  --     0.0000                 0.0000                 0.0000
 IR Inten    --     2.7185                 0.9503                 0.8403
 Raman Activ --     0.0000                 0.0000                 0.0000
 Depolar     --     0.0000                 0.0000                 0.0000
 Atom AN      X      Y      Z        X      Y      Z        X      Y      Z
   1   6    -0.02  -0.02   0.02     0.04  -0.03  -0.03    -0.05   0.10   0.01
   2   6    -0.13  -0.00   0.06     0.10  -0.04  -0.14    -0.03   0.05   0.16
   3   6    -0.09   0.04   0.00     0.02  -0.04   0.11     0.07  -0.11  -0.06
   4   6     0.05   0.04  -0.00    -0.05   0.10   0.11     0.07  -0.20  -0.19
   5   6     0.05  -0.07  -0.02    -0.02   0.19  -0.07    -0.02   0.07  -0.12
   6   6    -0.05  -0.12  -0.01     0.06  -0.00  -0.01     0.16   0.16   0.22
   7   6    -0.08  -0.02   0.08    -0.03  -0.12   0.08    -0.06   0.04   0.02
   8   6    -0.02   0.03   0.06    -0.15   0.00   0.06    -0.18  -0.07  -0.08
   9   6     0.08   0.00  -0.08    -0.04   0.05  -0.04    -0.07  -0.01   0.04
  10   6     0.13  -0.04  -0.08     0.15  -0.02  -0.04     0.09  -0.02  -0.02
  11   6     0.02  -0.01  -0.01     0.04   0.01  -0.02     0.04   0.02  -0.03
  12   1     0.04   0.00  -0.03    -0.05  -0.05   0.07     0.03   0.07  -0.07
  13   1     0.02   0.10  -0.10    -0.02  -0.12   0.13     0.01   0.11  -0.10
  14   1     0.09  -0.13   0.04    -0.11   0.18  -0.05     0.07  -0.12   0.03
  15   1     0.02  -0.01  -0.29    -0.02  -0.07   0.23     0.02   0.10  -0.09
  16   1     0.25  -0.02   0.15    -0.22   0.06  -0.16     0.12  -0.04   0.10
  17   1     0.15   0.05   0.10    -0.02  -0.14   0.01    -0.05   0.09  -0.05
  18   1     0.02  -0.05  -0.20     0.01   0.05   0.05    -0.01  -0.06   0.08
  19   1     0.03   0.01  -0.01     0.13   0.06  -0.11    -0.21  -0.13   0.19
  20   1     0.01  -0.01  -0.01    -0.09  -0.16  -0.03     0.22   0.19   0.08
  21   1     0.02   0.05   0.10    -0.09  -0.07  -0.21     0.01  -0.06  -0.16
  22   1     0.08   0.04  -0.12     0.05  -0.12   0.15    -0.19  -0.02   0.14
  23   1     0.07   0.08   0.16     0.13  -0.07  -0.10    -0.02  -0.12  -0.17
  24   1    -0.02   0.09  -0.17    -0.03  -0.03   0.07     0.04  -0.12   0.28
  25   1    -0.02   0.15  -0.01    -0.01   0.16  -0.02    -0.06   0.01  -0.02
  26   1     0.08  -0.07  -0.08     0.10  -0.12  -0.11    -0.02   0.00  -0.01
  27   1     0.06   0.08   0.03     0.16  -0.05   0.11     0.05  -0.12   0.03
  28   1    -0.02  -0.04  -0.02     0.01   0.02  -0.20    -0.02  -0.00  -0.16
  29   1    -0.22   0.02  -0.11    -0.02  -0.08   0.00     0.06  -0.08   0.05
  30   1     0.03   0.09   0.23     0.04   0.12  -0.04     0.02   0.06  -0.10
  31   1    -0.30   0.09  -0.14    -0.18   0.11  -0.09    -0.07   0.10  -0.05
  32   1     0.02   0.00   0.34     0.01  -0.04   0.24    -0.00  -0.05   0.12
  33   1    -0.05  -0.12   0.13    -0.05  -0.14   0.12    -0.03  -0.09   0.08
  34   1    -0.08   0.15  -0.04    -0.07   0.15  -0.05    -0.05   0.12  -0.04
  35   1    -0.05   0.02   0.03    -0.06   0.05   0.01    -0.04   0.04   0.02
                     25                     26                     27
                        a                      a                      a 
 Frequencies --   861.0901               895.0254               914.2575
 Red. masses --     4.8268                 5.7953                 6.4533
 Frc consts  --     0.0000                 0.0000                 0.0000
 IR Inten    --     1.1030                 1.1542                 2.1542
 Raman Activ --     0.0000                 0.0000                 0.0000
 Depolar     --     0.0000                 0.0000                 0.0000
 Atom AN      X      Y      Z        X      Y      Z        X      Y      Z
   1   6    -0.02  -0.02  -0.02    -0.12  -0.16  -0.02    -0.07   0.13   0.07
   2   6    -0.04  -0.03  -0.04    -0.16  -0.10  -0.18     0.04   0.03   0.13
   3   6     0.10  -0.12   0.14     0.32  -0.07   0.26     0.08  -0.06  -0.21
   4   6     0.16   0.04  -0.06     0.08   0.22   0.02    -0.11  -0.08   0.09
   5   6    -0.07   0.15  -0.25    -0.22   0.05  -0.05    -0.01   0.08   0.17
   6   6    -0.03   0.00   0.15    -0.06  -0.01  -0.02    -0.18   0.03  -0.26
   7   6    -0.18  -0.08   0.21     0.10  -0.01  -0.07     0.09  -0.27  -0.01
   8   6     0.04  -0.06  -0.01     0.06   0.04   0.00     0.17   0.04   0.23
   9   6     0.10  -0.00  -0.18    -0.04   0.02   0.08    -0.09   0.09  -0.18
  10   6    -0.05   0.05   0.10    -0.00  -0.01  -0.04     0.06   0.04   0.06
  11   6    -0.05   0.05   0.05     0.02  -0.04  -0.03     0.05   0.04   0.05
  12   1     0.04  -0.06   0.04     0.18  -0.25   0.15     0.02   0.15  -0.15
  13   1     0.00   0.08  -0.02     0.02   0.31  -0.10     0.01   0.10  -0.14
  14   1     0.03   0.01   0.01     0.13  -0.04   0.08     0.09  -0.23   0.04
  15   1    -0.00   0.04  -0.03    -0.02   0.21  -0.11     0.02   0.13   0.02
  16   1     0.02  -0.00   0.01     0.03  -0.12  -0.02     0.03  -0.20   0.03
  17   1    -0.01  -0.02   0.02    -0.11  -0.02  -0.04    -0.15  -0.04  -0.16
  18   1     0.01  -0.07   0.08     0.03  -0.07   0.28    -0.02   0.03   0.14
  19   1    -0.00   0.02   0.01     0.01   0.16  -0.11     0.08  -0.08   0.02
  20   1     0.12  -0.00   0.03    -0.04   0.01  -0.04    -0.15   0.02  -0.06
  21   1    -0.09  -0.03  -0.18    -0.11   0.04   0.03     0.03  -0.06  -0.07
  22   1    -0.03  -0.06   0.06    -0.04   0.04  -0.05     0.03  -0.06   0.11
  23   1     0.13  -0.05  -0.03    -0.02   0.02   0.03    -0.00  -0.02  -0.10
  24   1    -0.03  -0.01   0.06    -0.00   0.02  -0.05    -0.15   0.02  -0.02
  25   1    -0.14   0.28  -0.07     0.02  -0.10  -0.00     0.10   0.04   0.01
  26   1     0.14  -0.17  -0.18    -0.01   0.05   0.06    -0.01  -0.14  -0.11
  27   1    -0.03   0.19  -0.05    -0.03  -0.06  -0.01     0.06   0.07   0.06
  28   1    -0.04  -0.10   0.11     0.03   0.07   0.03     0.08   0.10   0.08
  29   1    -0.14   0.17  -0.13     0.08  -0.04   0.06    -0.02   0.00  -0.05
  30   1    -0.02  -0.05   0.18    -0.01  -0.01  -0.08    -0.03  -0.00  -0.05
  31   1     0.08  -0.17   0.08    -0.00   0.08  -0.02    -0.01  -0.05   0.01
  32   1     0.03   0.12  -0.13    -0.03  -0.06   0.02    -0.00  -0.04   0.02
  33   1     0.04   0.14  -0.15    -0.02  -0.06   0.07    -0.03  -0.09  -0.00
  34   1     0.06  -0.23   0.06    -0.02   0.10  -0.03    -0.04  -0.09   0.00
  35   1     0.06   0.02  -0.09    -0.03  -0.02   0.05    -0.03   0.14  -0.11
                     28                     29                     30
                        a                      a                      a 
 Frequencies --   940.5648               941.5553               969.1678
 Red. masses --     5.0756                 5.8327                 4.3959
 Frc consts  --     0.0000                 0.0000                 0.0000
 IR Inten    --     3.3672                 1.3697                 2.1086
 Raman Activ --     0.0000                 0.0000                 0.0000
 Depolar     --     0.0000                 0.0000                 0.0000
 Atom AN      X      Y      Z        X      Y      Z        X      Y      Z
   1   6    -0.05   0.11   0.07    -0.06  -0.08   0.02     0.02  -0.08  -0.09
   2   6     0.05   0.01   0.07    -0.02  -0.01  -0.08    -0.04  -0.01  -0.00
   3   6     0.03  -0.07  -0.13     0.06   0.13  -0.03     0.02   0.01   0.10
   4   6    -0.08   0.00   0.10    -0.17   0.03   0.10     0.03  -0.07  -0.16
   5   6     0.00   0.09   0.00     0.08  -0.12   0.12    -0.03   0.04   0.13
   6   6     0.06  -0.09  -0.03     0.28   0.03  -0.02    -0.12   0.03  -0.12
   7   6    -0.02   0.04   0.02     0.01   0.18   0.01     0.12  -0.19  -0.15
   8   6    -0.14   0.10  -0.13    -0.29  -0.11  -0.07    -0.02   0.14   0.21
   9   6     0.25   0.03   0.23    -0.00  -0.18  -0.13     0.11   0.09  -0.02
  10   6    -0.12  -0.03  -0.16     0.10  -0.02   0.10     0.03   0.01  -0.10
  11   6    -0.17  -0.21  -0.06    -0.02   0.20   0.06    -0.13  -0.08   0.07
  12   1     0.00   0.13  -0.13     0.07  -0.07   0.02     0.02  -0.14   0.13
  13   1     0.01   0.05  -0.10     0.01   0.12  -0.06    -0.01   0.01   0.07
  14   1     0.06  -0.18   0.03     0.07  -0.08   0.04    -0.04   0.17  -0.02
  15   1     0.01   0.09   0.04    -0.00   0.11   0.00    -0.01  -0.04  -0.04
  16   1    -0.01  -0.17  -0.01    -0.02  -0.12  -0.04     0.03   0.18   0.03
  17   1    -0.09  -0.12  -0.09    -0.07  -0.04  -0.06     0.05   0.18   0.05
  18   1    -0.01   0.04   0.08     0.00   0.12   0.08     0.01  -0.04  -0.01
  19   1     0.10  -0.02  -0.02    -0.01   0.08  -0.07    -0.12  -0.06   0.09
  20   1    -0.10  -0.06  -0.03    -0.13  -0.05  -0.03     0.08   0.16   0.01
  21   1    -0.04  -0.03  -0.08     0.10   0.01   0.09    -0.02  -0.02  -0.01
  22   1     0.06  -0.05   0.06    -0.00   0.04  -0.03    -0.10   0.01   0.10
  23   1     0.13  -0.01   0.01    -0.02  -0.02  -0.04    -0.05  -0.01  -0.05
  24   1    -0.01   0.02  -0.04     0.18  -0.07   0.03    -0.18   0.02   0.05
  25   1    -0.00   0.04   0.00     0.09   0.02   0.06     0.14  -0.10   0.04
  26   1     0.12   0.04   0.04    -0.06   0.06   0.03    -0.05  -0.02   0.01
  27   1     0.04   0.01   0.01     0.09  -0.08   0.06     0.13  -0.08   0.13
  28   1    -0.05  -0.05  -0.11    -0.07  -0.09  -0.21     0.06   0.13  -0.12
  29   1     0.01   0.04   0.04    -0.17  -0.13  -0.08    -0.12  -0.15  -0.03
  30   1     0.09   0.09   0.13     0.04   0.07   0.10     0.10   0.21   0.07
  31   1    -0.02   0.04  -0.04    -0.07  -0.20   0.02    -0.13  -0.15  -0.05
  32   1     0.04   0.18  -0.04     0.08   0.14   0.05     0.09   0.23   0.05
  33   1     0.08   0.24  -0.03     0.02   0.09  -0.14     0.05   0.18  -0.11
  34   1     0.11   0.10   0.03     0.02  -0.22   0.04     0.08  -0.16   0.07
  35   1     0.09  -0.37   0.25     0.03   0.15  -0.17     0.08  -0.13   0.03
                     31                     32                     33
                        a                      a                      a 
 Frequencies --   982.9195              1031.5892              1039.0632
 Red. masses --     6.0668                 5.3623                 5.3093
 Frc consts  --     0.0000                 0.0000                 0.0000
 IR Inten    --     3.1830                 1.2109                 0.1086
 Raman Activ --     0.0000                 0.0000                 0.0000
 Depolar     --     0.0000                 0.0000                 0.0000
 Atom AN      X      Y      Z        X      Y      Z        X      Y      Z
   1   6     0.05   0.21   0.04    -0.05  -0.04  -0.13    -0.09  -0.10   0.01
   2   6     0.04  -0.03   0.11     0.03  -0.00   0.12     0.09   0.05  -0.06
   3   6    -0.00  -0.33   0.03     0.01  -0.06  -0.02    -0.11   0.18  -0.05
   4   6     0.19   0.14  -0.03    -0.10  -0.10  -0.10    -0.05  -0.14  -0.01
   5   6    -0.25   0.16  -0.12     0.02   0.19   0.20     0.24   0.06  -0.20
   6   6    -0.06  -0.12   0.05     0.00  -0.17  -0.20    -0.20  -0.10   0.22
   7   6     0.13   0.14  -0.11     0.06   0.11   0.05    -0.02   0.02  -0.09
   8   6    -0.04   0.05  -0.02    -0.10   0.10  -0.17     0.11   0.18   0.01
   9   6    -0.05  -0.16   0.01     0.02  -0.25   0.08    -0.02  -0.10   0.10
  10   6     0.06  -0.04   0.03    -0.04  -0.08   0.10     0.01  -0.03  -0.05
  11   6     0.02   0.14   0.05     0.06   0.13  -0.07     0.02   0.06   0.05
  12   1    -0.09   0.21  -0.14     0.05  -0.16   0.13     0.08  -0.10   0.05
  13   1    -0.00  -0.12  -0.00    -0.01   0.11   0.03     0.00   0.14  -0.06
  14   1    -0.04  -0.05  -0.03    -0.00   0.16  -0.01     0.07  -0.06   0.05
  15   1     0.01  -0.09   0.02     0.02   0.07   0.02     0.01   0.16   0.09
  16   1     0.02  -0.02   0.04     0.04   0.14   0.06    -0.06  -0.08  -0.06
  17   1     0.00  -0.12   0.01    -0.00   0.15  -0.00     0.03  -0.13   0.02
  18   1    -0.01  -0.21  -0.00     0.00   0.06   0.03     0.02   0.30  -0.08
  19   1     0.12  -0.01   0.00     0.03  -0.20   0.15    -0.02  -0.06   0.03
  20   1     0.05  -0.00  -0.01    -0.06   0.17  -0.05     0.16  -0.17   0.11
  21   1    -0.30   0.06  -0.01    -0.11  -0.03  -0.07     0.03  -0.05  -0.16
  22   1     0.04  -0.03  -0.02     0.06  -0.08   0.17     0.08  -0.07   0.03
  23   1    -0.01   0.06   0.14     0.16   0.02   0.04     0.05   0.03   0.13
  24   1     0.01   0.05  -0.12    -0.11   0.09  -0.15    -0.21   0.09   0.02
  25   1     0.03  -0.14   0.01     0.14   0.08   0.07    -0.17  -0.13  -0.09
  26   1     0.03   0.15   0.15     0.18   0.08   0.09     0.13   0.11   0.13
  27   1    -0.02  -0.13   0.01     0.05   0.16  -0.03    -0.06  -0.08  -0.02
  28   1     0.01   0.05  -0.05    -0.08  -0.13  -0.07     0.05   0.12   0.05
  29   1    -0.08  -0.20   0.00     0.01   0.06   0.01    -0.04  -0.20   0.04
  30   1     0.01   0.02   0.01    -0.05  -0.20   0.07     0.00  -0.01  -0.00
  31   1    -0.07  -0.13  -0.01     0.08   0.04   0.05    -0.06  -0.08  -0.03
  32   1     0.03   0.04   0.05    -0.04  -0.12  -0.03     0.01   0.01   0.03
  33   1    -0.00   0.01  -0.07    -0.02  -0.04   0.03    -0.01  -0.02  -0.03
  34   1    -0.01  -0.13   0.02    -0.03   0.08  -0.04    -0.01  -0.09   0.02
  35   1     0.00   0.14  -0.13    -0.03   0.08  -0.03    -0.00   0.08  -0.07
                     34                     35                     36
                        a                      a                      a 
 Frequencies --  1068.5109              1089.5190              1091.8708
 Red. masses --     7.0596                 5.7255                 6.0230
 Frc consts  --     0.0000                 0.0000                 0.0000
 IR Inten    --     0.1370                 1.4661                 0.1625
 Raman Activ --     0.0000                 0.0000                 0.0000
 Depolar     --     0.0000                 0.0000                 0.0000
 Atom AN      X      Y      Z        X      Y      Z        X      Y      Z
   1   6    -0.12   0.08  -0.13    -0.10   0.14  -0.23    -0.07   0.18  -0.04
   2   6     0.14  -0.12   0.14     0.10  -0.23   0.24     0.07  -0.24  -0.04
   3   6    -0.10  -0.13   0.04    -0.01  -0.03  -0.08    -0.06  -0.01   0.18
   4   6    -0.07   0.05  -0.13    -0.04   0.02   0.07     0.00   0.10  -0.18
   5   6     0.08   0.09   0.03     0.01  -0.03  -0.07     0.12  -0.03   0.04
   6   6     0.20  -0.13   0.06    -0.07   0.09   0.02    -0.02   0.01   0.03
   7   6    -0.12   0.08  -0.14     0.02  -0.00   0.15     0.04  -0.07  -0.10
   8   6    -0.00  -0.18   0.19     0.09  -0.10  -0.07    -0.04   0.08   0.08
   9   6     0.04   0.26  -0.14    -0.11   0.02  -0.01     0.03  -0.05  -0.04
  10   6    -0.06   0.22  -0.15     0.11  -0.21   0.14    -0.01  -0.28   0.23
  11   6     0.05  -0.19   0.14    -0.11   0.14  -0.15    -0.05   0.19  -0.22
  12   1     0.05  -0.08   0.06     0.03  -0.09   0.08    -0.01   0.09  -0.07
  13   1    -0.01   0.19  -0.05    -0.02   0.18  -0.01    -0.01   0.07  -0.07
  14   1     0.03   0.08   0.00    -0.01   0.21  -0.04     0.01  -0.03  -0.01
  15   1     0.03   0.09   0.11     0.03  -0.03   0.05     0.00  -0.07   0.06
  16   1    -0.01  -0.02   0.01     0.05  -0.00   0.08    -0.05  -0.20  -0.05
  17   1     0.03  -0.12   0.04    -0.00   0.12  -0.02     0.06  -0.18   0.09
  18   1     0.02   0.18  -0.04     0.00   0.07   0.01     0.03   0.14  -0.05
  19   1     0.04  -0.11   0.08     0.16  -0.12   0.05    -0.19   0.14  -0.06
  20   1     0.05   0.02   0.02    -0.13   0.05  -0.06     0.19  -0.06   0.08
  21   1    -0.26   0.04   0.03    -0.01   0.00  -0.00    -0.05   0.03   0.06
  22   1     0.14  -0.06   0.03     0.21  -0.05  -0.11    -0.07   0.03   0.04
  23   1    -0.06   0.04   0.12    -0.11   0.01  -0.01    -0.12   0.02   0.04
  24   1     0.12  -0.01  -0.06     0.20  -0.07  -0.02    -0.14   0.03   0.07
  25   1     0.06  -0.06   0.04    -0.17   0.03  -0.07     0.20  -0.01   0.08
  26   1    -0.24   0.02  -0.04    -0.02  -0.06  -0.06    -0.13  -0.03  -0.04
  27   1     0.03  -0.05   0.06    -0.12  -0.12  -0.07     0.13   0.19   0.06
  28   1    -0.05  -0.19   0.03     0.08   0.21   0.11    -0.01  -0.02  -0.06
  29   1    -0.00   0.10  -0.05     0.03  -0.04   0.03     0.02   0.15  -0.03
  30   1    -0.02   0.01  -0.03     0.05   0.18  -0.08     0.01  -0.00   0.05
  31   1    -0.01   0.04  -0.04    -0.03  -0.06   0.02     0.06  -0.04   0.08
  32   1    -0.04   0.00  -0.06     0.06   0.04   0.10    -0.01  -0.11   0.01
  33   1    -0.02  -0.12   0.04     0.03   0.18  -0.06     0.02   0.13  -0.02
  34   1    -0.02  -0.09   0.03     0.05   0.10  -0.02     0.02   0.19  -0.06
  35   1    -0.01   0.00  -0.01     0.03  -0.08   0.05     0.00  -0.04   0.05
                     37                     38                     39
                        a                      a                      a 
 Frequencies --  1095.9366              1114.0064              1137.1710
 Red. masses --     7.2871                 7.1972                 8.0502
 Frc consts  --     0.0000                 0.0000                 0.0000
 IR Inten    --     0.8603                 1.4002                 0.3681
 Raman Activ --     0.0000                 0.0000                 0.0000
 Depolar     --     0.0000                 0.0000                 0.0000
 Atom AN      X      Y      Z        X      Y      Z        X      Y      Z
   1   6    -0.05   0.32  -0.19    -0.04   0.00  -0.01    -0.05   0.07  -0.07
   2   6    -0.03  -0.45   0.09     0.07  -0.01   0.01     0.02  -0.17  -0.02
   3   6     0.11   0.05   0.12    -0.08   0.00   0.00    -0.01   0.32  -0.06
   4   6    -0.11   0.09  -0.02     0.09   0.00  -0.02     0.25  -0.21   0.21
   5   6     0.13  -0.06   0.02    -0.05  -0.02  -0.02    -0.27   0.04  -0.07
   6   6    -0.00   0.01   0.01    -0.13   0.11  -0.02    -0.20   0.06  -0.04
   7   6    -0.05  -0.01   0.00     0.16  -0.04   0.10     0.27   0.06   0.13
   8   6     0.00   0.11  -0.06    -0.09   0.01  -0.14    -0.13  -0.23  -0.03
   9   6     0.02  -0.08   0.09    -0.21  -0.35  -0.15     0.10   0.16  -0.02
  10   6    -0.04   0.19  -0.15     0.20   0.37   0.13    -0.09  -0.01  -0.09
  11   6     0.07  -0.12   0.16    -0.02  -0.23   0.07     0.03   0.00   0.02
  12   1    -0.05   0.10  -0.05     0.02  -0.02   0.01     0.01  -0.00  -0.00
  13   1    -0.02   0.05  -0.03    -0.00   0.06  -0.02    -0.01   0.05  -0.02
  14   1    -0.06   0.14  -0.07     0.02  -0.00   0.01    -0.00   0.04  -0.01
  15   1    -0.01  -0.26  -0.04     0.01   0.05   0.05     0.00  -0.09   0.00
  16   1     0.03  -0.18   0.04    -0.02  -0.03  -0.02    -0.02  -0.15  -0.03
  17   1     0.00   0.12   0.02     0.03  -0.07   0.03     0.04   0.15   0.01
  18   1     0.01  -0.01   0.09     0.01   0.08  -0.07     0.01   0.12  -0.03
  19   1    -0.13   0.15  -0.09     0.02  -0.02   0.02     0.13  -0.08   0.05
  20   1    -0.08   0.06  -0.04     0.10  -0.06   0.04     0.14  -0.19   0.10
  21   1     0.22  -0.03  -0.02    -0.07   0.02   0.04    -0.03   0.01  -0.01
  22   1    -0.03   0.02   0.01     0.01   0.01  -0.04    -0.13   0.03   0.00
  23   1     0.12  -0.03  -0.05    -0.19   0.03   0.01    -0.07   0.02  -0.00
  24   1    -0.10   0.03   0.04     0.02  -0.01   0.01    -0.04   0.01  -0.01
  25   1    -0.09  -0.00  -0.05     0.12   0.07   0.05     0.19   0.05   0.10
  26   1     0.14   0.03   0.05     0.00  -0.05  -0.03     0.13   0.04   0.07
  27   1    -0.01   0.01  -0.02     0.03   0.13  -0.03    -0.01  -0.14   0.02
  28   1    -0.01  -0.01  -0.01     0.03   0.14  -0.05    -0.05  -0.15  -0.06
  29   1    -0.03  -0.11   0.02    -0.08  -0.08  -0.05     0.03   0.13  -0.02
  30   1    -0.03  -0.10   0.02    -0.07  -0.13  -0.02     0.03   0.05   0.01
  31   1    -0.02   0.04  -0.04     0.14   0.30   0.04    -0.03  -0.06  -0.02
  32   1    -0.01   0.04  -0.04     0.12   0.28   0.02    -0.05  -0.07  -0.04
  33   1    -0.02  -0.13   0.02     0.02  -0.01   0.06    -0.01  -0.05   0.01
  34   1    -0.03  -0.13   0.03     0.03   0.01   0.03    -0.02  -0.02  -0.00
  35   1    -0.01   0.07  -0.06     0.02  -0.14   0.11    -0.01   0.04  -0.03
                     40                     41                     42
                        a                      a                      a 
 Frequencies --  1150.4705              1153.2749              1158.7071
 Red. masses --     7.8970                 8.1804                 6.8973
 Frc consts  --     0.0000                 0.0000                 0.0000
 IR Inten    --     0.3657                 0.2453                 0.0811
 Raman Activ --     0.0000                 0.0000                 0.0000
 Depolar     --     0.0000                 0.0000                 0.0000
 Atom AN      X      Y      Z        X      Y      Z        X      Y      Z
   1   6    -0.07  -0.02  -0.10    -0.05  -0.03   0.03    -0.05   0.04   0.06
   2   6     0.14   0.02   0.18     0.12   0.09   0.05     0.06  -0.08  -0.15
   3   6    -0.14  -0.03  -0.17    -0.16  -0.26   0.05    -0.09   0.13   0.16
   4   6     0.19   0.06   0.13    -0.02   0.22  -0.24     0.18  -0.08  -0.10
   5   6    -0.22  -0.14  -0.04     0.14  -0.12   0.11    -0.17   0.03   0.32
   6   6     0.13   0.15   0.01    -0.23   0.16  -0.13     0.17  -0.09  -0.31
   7   6    -0.09  -0.25  -0.11     0.20   0.01   0.30    -0.22   0.05   0.10
   8   6    -0.05   0.33  -0.06    -0.06  -0.17  -0.18     0.17   0.02  -0.11
   9   6     0.18  -0.11   0.24     0.08   0.10   0.13    -0.10  -0.01   0.09
  10   6    -0.14  -0.05  -0.13    -0.07  -0.03  -0.17     0.08  -0.03  -0.05
  11   6     0.08   0.05   0.06     0.03   0.02   0.08    -0.04   0.02   0.03
  12   1     0.04  -0.10   0.07     0.03  -0.03   0.01     0.01   0.05  -0.05
  13   1    -0.01   0.12  -0.00     0.00   0.06  -0.02     0.00   0.03  -0.05
  14   1     0.02   0.09   0.00     0.03  -0.03   0.03     0.03  -0.10   0.02
  15   1     0.03   0.09   0.08     0.02   0.13   0.10    -0.00  -0.03   0.05
  16   1     0.01   0.03   0.03    -0.02   0.08  -0.01    -0.08  -0.10  -0.09
  17   1     0.01  -0.07  -0.02     0.03  -0.26   0.05     0.08  -0.05   0.10
  18   1    -0.02  -0.01  -0.09    -0.01  -0.01  -0.09     0.02   0.14  -0.06
  19   1     0.14   0.00  -0.01    -0.12   0.11  -0.05    -0.03  -0.06   0.08
  20   1     0.02  -0.09   0.01     0.02   0.11  -0.04     0.16   0.02   0.05
  21   1    -0.02   0.05   0.11     0.09  -0.01   0.05    -0.13   0.04   0.12
  22   1    -0.10   0.07  -0.10     0.02   0.03  -0.03    -0.19   0.05   0.14
  23   1    -0.07  -0.04  -0.10    -0.09   0.01  -0.07     0.22  -0.04  -0.11
  24   1     0.12  -0.07   0.08    -0.05  -0.01   0.04     0.14  -0.02  -0.14
  25   1    -0.01  -0.01  -0.04     0.07   0.14   0.05    -0.15   0.08  -0.05
  26   1    -0.11  -0.11  -0.10     0.20  -0.03   0.02    -0.01  -0.05  -0.08
  27   1     0.11   0.23   0.02    -0.09  -0.14  -0.06    -0.12  -0.05  -0.10
  28   1     0.01   0.09  -0.09    -0.01   0.00   0.01     0.06   0.13   0.10
  29   1     0.00  -0.04   0.05     0.05   0.04   0.04     0.04  -0.12   0.06
  30   1     0.01  -0.11   0.11     0.04   0.07  -0.01     0.00   0.05  -0.07
  31   1    -0.03  -0.05  -0.02    -0.08  -0.07  -0.06    -0.06  -0.02  -0.04
  32   1    -0.06  -0.08  -0.05    -0.03  -0.04  -0.01     0.03   0.04   0.06
  33   1    -0.02  -0.09  -0.00    -0.01  -0.05  -0.02     0.01   0.04  -0.04
  34   1    -0.04  -0.06   0.00    -0.02  -0.09   0.02     0.01  -0.05   0.02
  35   1    -0.02   0.11  -0.07    -0.01   0.07  -0.06     0.02  -0.00  -0.02
                     43                     44                     45
                        a                      a                      a 
 Frequencies --  1175.6568              1213.8331              1226.8902
 Red. masses --     5.4914                 5.2220                 4.5679
 Frc consts  --     0.0000                 0.0000                 0.0000
 IR Inten    --     1.0422                 0.1852                 1.0511
 Raman Activ --     0.0000                 0.0000                 0.0000
 Depolar     --     0.0000                 0.0000                 0.0000
 Atom AN      X      Y      Z        X      Y      Z        X      Y      Z
   1   6    -0.06  -0.02  -0.12    -0.09   0.02   0.10    -0.16   0.02   0.12
   2   6     0.13   0.03   0.24     0.13  -0.03  -0.16     0.21  -0.04  -0.17
   3   6    -0.14  -0.07  -0.20    -0.09  -0.02   0.15    -0.10  -0.03   0.12
   4   6     0.16   0.12   0.09     0.05   0.02  -0.07     0.04   0.02   0.01
   5   6    -0.11  -0.11   0.04    -0.08  -0.07   0.03    -0.09  -0.07  -0.08
   6   6     0.05  -0.09  -0.04    -0.04   0.11  -0.01    -0.01   0.08   0.10
   7   6    -0.07   0.13  -0.09     0.03  -0.05  -0.04     0.03  -0.04  -0.10
   8   6     0.07  -0.07   0.16    -0.09   0.07   0.15     0.00   0.01   0.05
   9   6    -0.11   0.05  -0.21     0.19  -0.03  -0.18    -0.12   0.06   0.02
  10   6     0.10   0.03   0.15    -0.22   0.09   0.21     0.23  -0.06  -0.10
  11   6    -0.05  -0.03  -0.08     0.16  -0.07  -0.15    -0.18   0.05   0.10
  12   1     0.04  -0.11   0.08     0.03   0.04  -0.05     0.06   0.03  -0.06
  13   1    -0.01   0.11   0.01    -0.00   0.07  -0.08    -0.00   0.13  -0.12
  14   1     0.01   0.11  -0.00     0.05  -0.13   0.05     0.08  -0.17   0.07
  15   1     0.04   0.07   0.07     0.01  -0.04   0.09     0.02  -0.10   0.14
  16   1     0.02   0.05   0.06    -0.08   0.05  -0.09    -0.10   0.12  -0.11
  17   1    -0.01  -0.16  -0.04     0.08   0.09   0.10     0.08   0.21   0.10
  18   1    -0.04  -0.12  -0.06     0.00   0.02  -0.05    -0.01  -0.09  -0.06
  19   1    -0.02   0.17  -0.11     0.09  -0.12   0.08     0.11  -0.10   0.06
  20   1     0.02  -0.08   0.01    -0.09   0.17  -0.08    -0.15   0.17  -0.10
  21   1     0.22  -0.03   0.01     0.06  -0.01   0.03     0.11  -0.01  -0.00
  22   1    -0.32   0.11   0.05     0.10  -0.00  -0.09     0.08  -0.01  -0.11
  23   1     0.31  -0.06  -0.07     0.08  -0.04  -0.11     0.05  -0.03  -0.05
  24   1    -0.20   0.06   0.02     0.09  -0.04   0.01    -0.04   0.02   0.06
  25   1    -0.05  -0.06  -0.02    -0.21  -0.10  -0.11     0.02  -0.06  -0.01
  26   1     0.12   0.12   0.11     0.15   0.05   0.08     0.09   0.05   0.07
  27   1    -0.03  -0.12   0.03     0.01  -0.21   0.09     0.07   0.17   0.02
  28   1    -0.02  -0.14   0.01     0.01   0.07  -0.07    -0.08  -0.24   0.01
  29   1    -0.03  -0.01  -0.05    -0.15  -0.05  -0.11     0.08   0.06   0.04
  30   1    -0.04  -0.01  -0.04     0.04   0.01   0.14    -0.08  -0.13  -0.08
  31   1     0.04   0.03   0.04     0.11  -0.13   0.12    -0.05   0.17  -0.08
  32   1     0.03   0.03   0.02    -0.03   0.07  -0.17    -0.01  -0.17   0.15
  33   1     0.02   0.07   0.01    -0.02  -0.14   0.14     0.02   0.17  -0.13
  34   1     0.03   0.08  -0.01    -0.05   0.21  -0.08     0.06  -0.16   0.07
  35   1     0.01  -0.08   0.06    -0.07   0.01   0.07     0.07  -0.05  -0.03
                     46                     47                     48
                        a                      a                      a 
 Frequencies --  1244.7555              1269.3416              1274.4433
 Red. masses --     3.9685                 3.3333                 3.2472
 Frc consts  --     0.0000                 0.0000                 0.0000
 IR Inten    --     0.0366                 0.0841                 0.0259
 Raman Activ --     0.0000                 0.0000                 0.0000
 Depolar     --     0.0000                 0.0000                 0.0000
 Atom AN      X      Y      Z        X      Y      Z        X      Y      Z
   1   6     0.21   0.00  -0.07     0.10   0.01   0.00    -0.01  -0.00   0.01
   2   6    -0.25  -0.01   0.04    -0.09  -0.05  -0.05     0.01   0.00  -0.01
   3   6     0.03  -0.01   0.06    -0.07  -0.04   0.10     0.01  -0.01  -0.01
   4   6     0.04   0.04  -0.11     0.09   0.08  -0.01    -0.03  -0.01   0.02
   5   6    -0.07  -0.11   0.08    -0.10  -0.14  -0.10     0.01  -0.03  -0.02
   6   6    -0.04   0.20  -0.05     0.01  -0.02   0.13     0.06   0.07  -0.01
   7   6     0.05  -0.10  -0.04    -0.03   0.11  -0.08    -0.02  -0.09   0.04
   8   6    -0.05   0.08   0.11     0.07  -0.12  -0.04     0.13   0.07  -0.14
   9   6     0.01   0.07  -0.07    -0.13  -0.07   0.09    -0.13   0.23   0.10
  10   6     0.12   0.01   0.01    -0.08  -0.05  -0.04     0.06   0.12   0.12
  11   6    -0.11   0.02   0.01     0.11  -0.02  -0.00     0.05  -0.06  -0.16
  12   1    -0.09   0.03   0.02    -0.04   0.04  -0.01     0.01   0.00  -0.00
  13   1     0.01  -0.18   0.12     0.01  -0.09   0.04    -0.00   0.01  -0.01
  14   1    -0.10   0.12  -0.08    -0.05   0.03  -0.03     0.01  -0.01   0.00
  15   1    -0.03   0.22  -0.13    -0.01   0.19  -0.02     0.00  -0.01   0.01
  16   1     0.08  -0.20   0.07     0.01  -0.10   0.00    -0.00   0.01  -0.00
  17   1    -0.02  -0.22  -0.00     0.04  -0.04   0.06    -0.01   0.06  -0.01
  18   1     0.04   0.31   0.05     0.02   0.22   0.01    -0.00  -0.03  -0.01
  19   1     0.09  -0.13   0.09     0.21  -0.18   0.11    -0.01   0.01  -0.01
  20   1     0.05   0.03   0.00    -0.15   0.18  -0.11     0.01  -0.04   0.02
  21   1    -0.08   0.02   0.09     0.14  -0.03  -0.01    -0.11   0.04   0.06
  22   1     0.14   0.00  -0.12    -0.01   0.03  -0.12     0.05  -0.01  -0.03
  23   1     0.06  -0.05  -0.15     0.24  -0.06  -0.05    -0.11   0.01  -0.02
  24   1     0.09  -0.04   0.03    -0.25   0.06   0.13    -0.07   0.02   0.06
  25   1    -0.16  -0.09  -0.10     0.21   0.04   0.10     0.11   0.07   0.05
  26   1     0.24   0.05   0.10    -0.14   0.03  -0.02     0.07  -0.04  -0.02
  27   1     0.05  -0.03   0.06     0.01   0.19  -0.05    -0.02   0.12  -0.07
  28   1    -0.07  -0.19  -0.03     0.03   0.04   0.05    -0.14  -0.41   0.07
  29   1    -0.01  -0.01  -0.02     0.10   0.10   0.05    -0.09  -0.43   0.08
  30   1    -0.08  -0.17   0.00     0.07   0.22  -0.06    -0.09  -0.11  -0.12
  31   1    -0.00   0.08  -0.02    -0.04  -0.10  -0.01    -0.13  -0.44   0.03
  32   1    -0.03  -0.17   0.05     0.10   0.30  -0.02     0.05   0.12  -0.01
  33   1     0.01   0.10  -0.05    -0.01  -0.09   0.04    -0.00  -0.04   0.10
  34   1     0.04  -0.05   0.03    -0.04   0.04  -0.03     0.00   0.14  -0.05
  35   1     0.04  -0.06   0.01    -0.03   0.07  -0.02    -0.03  -0.07   0.09
                     49                     50                     51
                        a                      a                      a 
 Frequencies --  1278.5848              1286.4422              1289.3046
 Red. masses --     2.4095                 1.9008                 2.3941
 Frc consts  --     0.0000                 0.0000                 0.0000
 IR Inten    --     0.6870                 0.3187                 0.2367
 Raman Activ --     0.0000                 0.0000                 0.0000
 Depolar     --     0.0000                 0.0000                 0.0000
 Atom AN      X      Y      Z        X      Y      Z        X      Y      Z
   1   6    -0.13  -0.01   0.03     0.03  -0.00  -0.01     0.04  -0.03  -0.08
   2   6    -0.04   0.06   0.05    -0.01  -0.00  -0.01     0.11   0.11   0.02
   3   6     0.17   0.06  -0.10    -0.03  -0.01   0.03    -0.09   0.06   0.02
   4   6    -0.02  -0.06  -0.04     0.03   0.02   0.00    -0.07  -0.08  -0.02
   5   6    -0.05  -0.08   0.06    -0.02   0.00  -0.03     0.01   0.04   0.10
   6   6    -0.01   0.13  -0.02    -0.01  -0.05   0.01    -0.02   0.08  -0.05
   7   6     0.01   0.02  -0.05     0.01   0.02   0.03     0.02  -0.02  -0.07
   8   6     0.04  -0.07   0.01     0.10  -0.04  -0.11     0.03  -0.09   0.06
   9   6    -0.05  -0.07   0.00     0.11   0.01  -0.04    -0.10  -0.06   0.02
  10   6    -0.07  -0.03  -0.01    -0.11   0.08   0.09    -0.09  -0.08  -0.02
  11   6     0.03   0.00   0.03    -0.07   0.02   0.03     0.06  -0.00   0.03
  12   1     0.03  -0.03   0.01    -0.01   0.00   0.00     0.01  -0.05   0.04
  13   1    -0.01   0.10  -0.06     0.00  -0.02   0.01     0.00  -0.02   0.05
  14   1     0.05  -0.07   0.04    -0.01   0.01  -0.01    -0.01   0.07  -0.02
  15   1    -0.03  -0.46  -0.08     0.00   0.07   0.00     0.03   0.19   0.08
  16   1     0.03   0.33   0.06    -0.00  -0.06  -0.01    -0.04  -0.40  -0.06
  17   1    -0.09  -0.24  -0.10     0.02  -0.01   0.02     0.05   0.18   0.05
  18   1     0.03   0.14   0.11     0.00   0.03  -0.01    -0.05  -0.40  -0.09
  19   1    -0.05   0.01  -0.01     0.05  -0.04   0.02    -0.17   0.09  -0.04
  20   1     0.12  -0.11   0.07    -0.05   0.06  -0.04     0.07  -0.09   0.06
  21   1    -0.20   0.08   0.16     0.10  -0.03  -0.05    -0.14   0.02   0.04
  22   1     0.24  -0.05  -0.12    -0.07   0.02   0.01     0.21  -0.05  -0.04
  23   1     0.21  -0.07  -0.15    -0.01   0.02   0.05     0.05  -0.02  -0.07
  24   1    -0.11   0.00   0.11    -0.03  -0.01   0.02     0.07  -0.03   0.01
  25   1    -0.01  -0.02  -0.01     0.09   0.03   0.05    -0.12  -0.08  -0.07
  26   1     0.08   0.05   0.05    -0.08  -0.04  -0.06     0.17   0.07   0.09
  27   1     0.04   0.15  -0.01    -0.02   0.10  -0.07     0.09   0.25   0.01
  28   1    -0.01  -0.06   0.05    -0.02  -0.11   0.05    -0.03  -0.11   0.05
  29   1    -0.00  -0.01   0.00    -0.25  -0.48  -0.04     0.04   0.05   0.02
  30   1     0.10   0.25  -0.01     0.18   0.39   0.05     0.10   0.29  -0.04
  31   1     0.05   0.10   0.01     0.18   0.31   0.06     0.04   0.09   0.00
  32   1     0.00   0.04  -0.03    -0.18  -0.40  -0.09     0.04   0.15  -0.02
  33   1    -0.00  -0.02   0.00     0.00   0.05  -0.03    -0.00  -0.04   0.00
  34   1    -0.02  -0.01  -0.00     0.01  -0.05   0.03    -0.03   0.01  -0.01
  35   1    -0.01   0.04  -0.02    -0.00  -0.01   0.01    -0.02   0.06  -0.03
                     52                     53                     54
                        a                      a                      a 
 Frequencies --  1292.4528              1304.4618              1320.5582
 Red. masses --     2.1990                 3.6403                 3.3156
 Frc consts  --     0.0000                 0.0000                 0.0000
 IR Inten    --     0.1586                 1.7432                 0.2595
 Raman Activ --     0.0000                 0.0000                 0.0000
 Depolar     --     0.0000                 0.0000                 0.0000
 Atom AN      X      Y      Z        X      Y      Z        X      Y      Z
   1   6     0.02  -0.01  -0.01     0.05   0.04   0.11     0.04   0.02   0.07
   2   6     0.04   0.02  -0.02    -0.04  -0.24  -0.08    -0.01  -0.18  -0.04
   3   6    -0.02  -0.00  -0.01    -0.02  -0.23  -0.10    -0.03  -0.10  -0.09
   4   6    -0.07  -0.03   0.05    -0.01   0.06   0.15     0.02  -0.02  -0.03
   5   6     0.05  -0.15  -0.04     0.13  -0.06  -0.05    -0.16   0.08   0.17
   6   6     0.13   0.07  -0.01     0.10   0.03  -0.12    -0.20   0.01   0.14
   7   6    -0.07   0.08   0.09    -0.03  -0.03   0.03     0.03   0.04  -0.09
   8   6    -0.01   0.05  -0.06     0.03  -0.02   0.06    -0.03  -0.04  -0.04
   9   6     0.11   0.00  -0.05    -0.04  -0.04  -0.02     0.03   0.03   0.02
  10   6     0.04   0.05   0.01    -0.05  -0.06  -0.01     0.03   0.07   0.01
  11   6    -0.05   0.01   0.00     0.02   0.00   0.03    -0.02  -0.00  -0.02
  12   1     0.00  -0.01   0.00    -0.04   0.12  -0.09    -0.03   0.08  -0.06
  13   1     0.00  -0.01   0.01     0.01  -0.02  -0.04     0.01  -0.01  -0.02
  14   1    -0.00   0.02  -0.01    -0.03  -0.03  -0.00    -0.03  -0.00  -0.01
  15   1     0.01   0.10   0.04     0.01   0.31   0.02     0.01   0.27   0.03
  16   1    -0.01  -0.12  -0.03     0.02   0.34   0.02     0.02   0.22   0.02
  17   1     0.03   0.20   0.02     0.02   0.36  -0.01     0.03   0.19   0.00
  18   1    -0.02  -0.15  -0.01     0.02   0.26   0.02    -0.01   0.08   0.02
  19   1    -0.02   0.00  -0.00    -0.00   0.11  -0.08    -0.17   0.18  -0.11
  20   1    -0.01  -0.08   0.02     0.01  -0.13   0.04     0.19  -0.15   0.11
  21   1    -0.35   0.09   0.19    -0.23   0.05   0.09     0.19  -0.07  -0.09
  22   1     0.18  -0.02  -0.15    -0.20   0.06   0.05     0.31  -0.07  -0.08
  23   1     0.20  -0.07  -0.13    -0.17   0.04   0.02     0.35  -0.08  -0.10
  24   1    -0.42   0.10   0.21    -0.10   0.01   0.06     0.24  -0.04  -0.10
  25   1     0.12   0.13   0.08    -0.15  -0.02  -0.07     0.16  -0.01   0.07
  26   1    -0.13  -0.03  -0.06     0.18   0.04   0.07    -0.15  -0.01  -0.05
  27   1    -0.11  -0.31  -0.02     0.01   0.06   0.01     0.03   0.05   0.00
  28   1     0.06   0.18  -0.01    -0.01  -0.07  -0.00     0.02   0.08   0.02
  29   1    -0.04  -0.01  -0.04     0.02   0.04  -0.00    -0.02  -0.06   0.00
  30   1    -0.04  -0.16   0.06     0.06   0.16  -0.00    -0.02  -0.07   0.00
  31   1     0.01   0.04   0.00     0.04   0.10   0.00    -0.03  -0.09   0.00
  32   1    -0.05  -0.17   0.00     0.02   0.08  -0.01    -0.03  -0.08   0.00
  33   1     0.00   0.04  -0.02     0.00  -0.01  -0.01    -0.00   0.00   0.01
  34   1     0.02  -0.03   0.02    -0.02  -0.00  -0.00     0.01  -0.00   0.00
  35   1     0.02  -0.03   0.01    -0.01   0.04  -0.03     0.01  -0.03   0.03
                     55                     56                     57
                        a                      a                      a 
 Frequencies --  1348.5572              1358.7963              1364.1479
 Red. masses --     4.2728                 4.6121                 4.5611
 Frc consts  --     0.0000                 0.0000                 0.0000
 IR Inten    --     0.2657                 5.4541                 1.8333
 Raman Activ --     0.0000                 0.0000                 0.0000
 Depolar     --     0.0000                 0.0000                 0.0000
 Atom AN      X      Y      Z        X      Y      Z        X      Y      Z
   1   6     0.00   0.00   0.01    -0.01   0.00   0.01     0.00  -0.01  -0.01
   2   6    -0.00  -0.02  -0.00     0.01   0.02  -0.02    -0.01   0.01   0.02
   3   6     0.01   0.01  -0.00     0.08  -0.04   0.02    -0.08   0.02  -0.01
   4   6    -0.01   0.01  -0.03    -0.23   0.26  -0.12     0.24  -0.27   0.14
   5   6    -0.08   0.03   0.04    -0.01  -0.06   0.03    -0.00   0.09  -0.05
   6   6    -0.01   0.00   0.03     0.05   0.06   0.03     0.03   0.07   0.06
   7   6    -0.00  -0.07   0.05    -0.35  -0.12  -0.14    -0.31  -0.12  -0.14
   8   6     0.11   0.31  -0.03     0.09  -0.02   0.02     0.09   0.01   0.01
   9   6    -0.01   0.07  -0.07     0.00  -0.03  -0.02     0.00  -0.02  -0.02
  10   6    -0.13  -0.36   0.00     0.00   0.02   0.00    -0.00  -0.01   0.01
  11   6     0.07   0.02   0.09    -0.01  -0.00  -0.00    -0.00  -0.00   0.00
  12   1    -0.00   0.01  -0.01     0.01  -0.00  -0.00    -0.01  -0.01   0.01
  13   1     0.00   0.00  -0.00    -0.00  -0.00  -0.00    -0.00   0.00   0.01
  14   1    -0.00   0.00  -0.00     0.01  -0.01   0.00    -0.00   0.01  -0.00
  15   1    -0.00   0.02   0.00     0.00  -0.04  -0.00    -0.00  -0.00   0.00
  16   1     0.01   0.03   0.01    -0.01  -0.02  -0.01     0.01  -0.01   0.01
  17   1    -0.00  -0.01  -0.00    -0.01   0.10  -0.01    -0.00  -0.09   0.00
  18   1    -0.00  -0.02   0.00     0.00  -0.11   0.03     0.01   0.14  -0.05
  19   1    -0.01   0.00  -0.00     0.23  -0.23   0.13    -0.24   0.25  -0.14
  20   1     0.06  -0.03   0.03     0.22  -0.26   0.15    -0.24   0.28  -0.16
  21   1     0.10  -0.03  -0.04     0.14  -0.02  -0.00    -0.14   0.02  -0.03
  22   1     0.10  -0.02  -0.03    -0.06   0.02   0.00     0.09  -0.02  -0.02
  23   1    -0.01  -0.01  -0.00    -0.08   0.01   0.01    -0.08   0.02   0.02
  24   1     0.03  -0.00  -0.02     0.12  -0.04   0.00     0.14  -0.05   0.02
  25   1     0.10   0.05   0.06     0.33   0.12   0.17     0.33   0.12   0.16
  26   1    -0.10  -0.09  -0.10     0.33   0.10   0.16     0.29   0.09   0.14
  27   1    -0.13  -0.36  -0.02    -0.05  -0.08  -0.02    -0.04  -0.11  -0.01
  28   1    -0.12  -0.33  -0.00     0.06   0.13   0.04     0.04   0.09   0.06
  29   1    -0.00  -0.07  -0.00    -0.00   0.03  -0.01    -0.00   0.02  -0.01
  30   1    -0.04  -0.06   0.02     0.02   0.04  -0.00     0.01   0.02  -0.00
  31   1     0.13   0.38  -0.00     0.01   0.00   0.00     0.01   0.02   0.00
  32   1     0.13   0.36  -0.01    -0.01  -0.04  -0.00    -0.00  -0.01  -0.00
  33   1     0.02   0.01  -0.06     0.00   0.01   0.00     0.00   0.01  -0.00
  34   1    -0.05   0.03  -0.01     0.00  -0.00   0.00     0.00   0.00   0.00
  35   1    -0.02   0.13  -0.10     0.00  -0.00   0.00    -0.00   0.00  -0.00
                     58                     59                     60
                        a                      a                      a 
 Frequencies --  1373.0387              1375.6873              1377.4394
 Red. masses --     5.2118                 5.1584                 5.4404
 Frc consts  --     0.0000                 0.0000                 0.0000
 IR Inten    --     0.0311                 0.0524                 1.7267
 Raman Activ --     0.0000                 0.0000                 0.0000
 Depolar     --     0.0000                 0.0000                 0.0000
 Atom AN      X      Y      Z        X      Y      Z        X      Y      Z
   1   6    -0.03  -0.05  -0.06    -0.02  -0.00  -0.02     0.01  -0.00   0.00
   2   6     0.01   0.38   0.01     0.02   0.10   0.00    -0.00  -0.01  -0.00
   3   6    -0.03  -0.44  -0.02     0.00  -0.07  -0.01    -0.00   0.00  -0.00
   4   6     0.06   0.07   0.03    -0.07   0.04   0.06     0.00  -0.00  -0.01
   5   6    -0.12   0.03   0.04     0.37  -0.10  -0.12    -0.02   0.02   0.02
   6   6     0.06  -0.03  -0.01    -0.39   0.08   0.13    -0.01   0.00  -0.01
   7   6     0.01   0.02   0.01     0.07  -0.03  -0.06     0.02  -0.07   0.03
   8   6    -0.01   0.00  -0.00     0.02   0.06   0.00     0.13   0.33   0.02
   9   6     0.00  -0.00   0.00    -0.01   0.00  -0.01    -0.15  -0.39   0.00
  10   6     0.00  -0.00  -0.00    -0.00  -0.02   0.00     0.08   0.28  -0.03
  11   6    -0.00   0.00  -0.00     0.00  -0.00   0.01    -0.03  -0.04  -0.02
  12   1     0.02  -0.07   0.05     0.01  -0.03   0.02    -0.00   0.01  -0.00
  13   1    -0.01  -0.00   0.05    -0.01  -0.01   0.01     0.00   0.00  -0.00
  14   1     0.05  -0.00   0.02     0.02  -0.01   0.01    -0.01   0.00  -0.00
  15   1    -0.02  -0.33  -0.01    -0.00  -0.10  -0.01     0.00   0.02   0.00
  16   1     0.01  -0.33  -0.02    -0.02  -0.10  -0.02     0.00   0.01   0.00
  17   1     0.01   0.37   0.01     0.02   0.11   0.01     0.00   0.00   0.00
  18   1     0.06   0.42   0.00    -0.00   0.03   0.04    -0.00  -0.01   0.00
  19   1    -0.06   0.12  -0.07     0.07  -0.03   0.01    -0.01   0.01  -0.00
  20   1     0.05  -0.07   0.03    -0.07   0.02  -0.02     0.01  -0.01   0.01
  21   1     0.14  -0.01  -0.01    -0.31   0.07   0.11     0.03  -0.02  -0.03
  22   1     0.06  -0.03  -0.00    -0.34   0.10   0.10     0.03  -0.00  -0.02
  23   1    -0.04  -0.00   0.01     0.37  -0.07  -0.10    -0.02   0.02   0.02
  24   1    -0.05   0.03  -0.01     0.33  -0.10  -0.11     0.02  -0.03   0.02
  25   1    -0.03  -0.01  -0.01     0.12  -0.00   0.04     0.01   0.02   0.00
  26   1    -0.02  -0.01  -0.01    -0.09  -0.01  -0.03    -0.09  -0.06  -0.06
  27   1     0.00  -0.01   0.00    -0.02  -0.01  -0.01    -0.12  -0.26  -0.02
  28   1    -0.00  -0.00   0.01    -0.02  -0.08  -0.04    -0.10  -0.31  -0.03
  29   1     0.00   0.01  -0.00     0.01  -0.03   0.01     0.13   0.34  -0.00
  30   1    -0.00  -0.01  -0.00    -0.01  -0.01   0.01     0.14   0.35  -0.00
  31   1    -0.00  -0.00  -0.00     0.01   0.02   0.00    -0.06  -0.23  -0.00
  32   1     0.00   0.00  -0.00     0.01   0.02  -0.00    -0.08  -0.21   0.02
  33   1    -0.00  -0.00   0.00     0.00   0.01  -0.01     0.00   0.01   0.03
  34   1     0.00  -0.01   0.00    -0.00   0.01  -0.00     0.03  -0.00   0.01
  35   1     0.00  -0.00   0.00    -0.00   0.01  -0.01     0.00  -0.04   0.02
                     61                     62                     63
                        a                      a                      a 
 Frequencies --  1416.1275              1417.0588              1488.0105
 Red. masses --     3.1767                 3.1612                 1.9330
 Frc consts  --     0.0000                 0.0000                 0.0000
 IR Inten    --     0.2741                 1.2779                 0.3108
 Raman Activ --     0.0000                 0.0000                 0.0000
 Depolar     --     0.0000                 0.0000                 0.0000
 Atom AN      X      Y      Z        X      Y      Z        X      Y      Z
   1   6    -0.03   0.16  -0.07    -0.07   0.36  -0.15     0.01  -0.01   0.00
   2   6    -0.00  -0.03  -0.00    -0.01  -0.07  -0.01    -0.04   0.01  -0.08
   3   6    -0.00  -0.00  -0.01    -0.01   0.01  -0.01    -0.01   0.00   0.01
   4   6     0.00  -0.00   0.00    -0.00  -0.00   0.01    -0.09  -0.07   0.02
   5   6    -0.01   0.00   0.00    -0.00   0.00   0.01    -0.04   0.00  -0.10
   6   6     0.01  -0.00  -0.00     0.00   0.00  -0.00    -0.04   0.02  -0.12
   7   6     0.00   0.00  -0.00    -0.00  -0.00   0.00    -0.05   0.12   0.03
   8   6    -0.01  -0.02  -0.01     0.01   0.01   0.00    -0.01  -0.00   0.00
   9   6     0.01  -0.00   0.01    -0.01  -0.00  -0.01    -0.06   0.02  -0.11
  10   6     0.03   0.07   0.00    -0.01  -0.03  -0.00     0.00   0.02  -0.01
  11   6    -0.01  -0.36   0.16     0.01   0.16  -0.07     0.00  -0.00   0.01
  12   1     0.07  -0.13   0.15     0.16  -0.29   0.32    -0.01   0.00  -0.00
  13   1    -0.04  -0.20   0.07    -0.08  -0.43   0.16     0.00   0.01  -0.02
  14   1     0.08  -0.20   0.02     0.16  -0.44   0.03    -0.02   0.01  -0.01
  15   1    -0.00   0.02   0.02    -0.00   0.06   0.06    -0.04  -0.00   0.22
  16   1     0.01   0.03   0.01     0.05   0.06   0.03     0.20  -0.03   0.10
  17   1    -0.00   0.00  -0.00    -0.01   0.01  -0.01    -0.02  -0.00  -0.01
  18   1     0.00   0.01  -0.00    -0.00   0.00  -0.01     0.00  -0.01  -0.03
  19   1    -0.00   0.01  -0.01     0.00   0.01  -0.01     0.20   0.06  -0.19
  20   1     0.00  -0.00   0.00     0.01  -0.00   0.01     0.16   0.21   0.10
  21   1     0.00  -0.00  -0.01    -0.00  -0.01  -0.01     0.09   0.12   0.19
  22   1     0.01   0.00  -0.00     0.01   0.00  -0.01     0.04  -0.16   0.17
  23   1    -0.00   0.00   0.00    -0.00   0.00   0.00     0.12   0.16   0.21
  24   1    -0.01  -0.00   0.00    -0.00  -0.00   0.00     0.02  -0.18   0.23
  25   1    -0.01  -0.00  -0.00     0.00   0.00   0.00     0.05  -0.29   0.09
  26   1     0.00   0.00   0.00     0.00  -0.00  -0.00     0.16  -0.14  -0.22
  27   1     0.01   0.03   0.00    -0.01  -0.01  -0.00    -0.01   0.01  -0.00
  28   1     0.01   0.03   0.00    -0.00  -0.02  -0.00     0.00   0.01  -0.01
  29   1     0.00  -0.01   0.01     0.00   0.01  -0.00     0.26  -0.10   0.11
  30   1    -0.00  -0.01   0.01     0.00   0.01  -0.00    -0.03  -0.00   0.29
  31   1    -0.06  -0.05  -0.02     0.03   0.02   0.01     0.01  -0.02   0.00
  32   1    -0.02  -0.07  -0.04     0.01   0.03   0.02    -0.00  -0.01   0.02
  33   1     0.17   0.39  -0.20    -0.08  -0.17   0.09    -0.00  -0.01  -0.03
  34   1    -0.04   0.47  -0.04     0.01  -0.21   0.02    -0.03   0.01  -0.01
  35   1    -0.11   0.31  -0.32     0.05  -0.14   0.15     0.01  -0.01   0.01
                     64                     65                     66
                        a                      a                      a 
 Frequencies --  1489.8449              1492.1438              1498.4852
 Red. masses --     1.8625                 1.9657                 1.8442
 Frc consts  --     0.0000                 0.0000                 0.0000
 IR Inten    --     0.2030                 0.0368                 1.1010
 Raman Activ --     0.0000                 0.0000                 0.0000
 Depolar     --     0.0000                 0.0000                 0.0000
 Atom AN      X      Y      Z        X      Y      Z        X      Y      Z
   1   6    -0.00   0.01   0.01    -0.02  -0.00  -0.02     0.00  -0.00   0.02
   2   6     0.00  -0.00   0.00     0.04  -0.01   0.09    -0.04   0.01  -0.07
   3   6     0.00   0.01  -0.03     0.02  -0.01   0.07     0.00   0.01  -0.00
   4   6     0.16   0.12  -0.04    -0.11  -0.08   0.04    -0.00  -0.00  -0.00
   5   6     0.02   0.01   0.03     0.02  -0.02   0.07     0.01   0.00   0.03
   6   6    -0.01   0.01  -0.01     0.02   0.00   0.06     0.01  -0.00   0.04
   7   6    -0.08   0.16   0.04    -0.06   0.13   0.05     0.02  -0.04  -0.01
   8   6     0.01   0.00   0.03     0.03  -0.00   0.06     0.04  -0.03   0.09
   9   6    -0.01   0.00  -0.01     0.06  -0.02   0.10     0.00   0.03  -0.02
  10   6    -0.00   0.01  -0.02    -0.01  -0.01  -0.02    -0.12   0.05  -0.18
  11   6     0.00  -0.00   0.00    -0.00  -0.00  -0.00     0.03  -0.00   0.05
  12   1    -0.00  -0.01   0.01     0.02   0.01  -0.03     0.02  -0.01  -0.00
  13   1     0.00  -0.00  -0.01    -0.01  -0.01   0.06     0.01  -0.01  -0.06
  14   1    -0.01  -0.01  -0.01     0.06   0.02   0.03    -0.05   0.02  -0.02
  15   1     0.00  -0.02  -0.02     0.04   0.02  -0.21    -0.04  -0.03   0.20
  16   1    -0.02   0.02  -0.01    -0.20   0.01  -0.10     0.18  -0.02   0.09
  17   1     0.07  -0.00   0.04    -0.14   0.02  -0.08    -0.00  -0.01  -0.00
  18   1    -0.01   0.01   0.09     0.04   0.01  -0.16    -0.00  -0.00  -0.00
  19   1    -0.34  -0.10   0.34     0.22   0.07  -0.23    -0.00   0.00  -0.00
  20   1    -0.27  -0.36  -0.18     0.18   0.24   0.12     0.00  -0.00   0.00
  21   1    -0.04  -0.05  -0.09    -0.09  -0.09  -0.13    -0.02  -0.03  -0.05
  22   1     0.00   0.06  -0.08    -0.01   0.12  -0.14     0.00   0.04  -0.05
  23   1     0.02   0.04   0.06    -0.04  -0.08  -0.11    -0.04  -0.05  -0.07
  24   1     0.02  -0.05   0.06    -0.03   0.09  -0.10    -0.01   0.06  -0.07
  25   1     0.07  -0.40   0.14     0.05  -0.34   0.11    -0.01   0.09  -0.03
  26   1     0.22  -0.20  -0.31     0.18  -0.17  -0.26    -0.04   0.04   0.07
  27   1    -0.07   0.04  -0.04    -0.13   0.05  -0.07    -0.20   0.08  -0.10
  28   1     0.01   0.01  -0.09     0.02  -0.00  -0.16     0.04  -0.00  -0.23
  29   1     0.04  -0.01   0.02    -0.22   0.09  -0.09     0.01  -0.03   0.01
  30   1    -0.01  -0.01   0.04     0.02  -0.01  -0.25    -0.01  -0.01   0.02
  31   1     0.03  -0.02   0.01     0.05  -0.01   0.02     0.48  -0.18   0.18
  32   1    -0.00  -0.00   0.04    -0.00   0.00   0.05    -0.03  -0.00   0.54
  33   1     0.00   0.00  -0.01     0.00   0.01   0.01    -0.00  -0.02  -0.20
  34   1    -0.01   0.00  -0.00     0.01   0.00   0.00    -0.17   0.07  -0.06
  35   1    -0.00  -0.00   0.01    -0.01   0.01  -0.01     0.03  -0.05   0.03
                     67                     68                     69
                        a                      a                      a 
 Frequencies --  1499.0988              1499.4140              1503.1922
 Red. masses --     1.8974                 1.8418                 1.9258
 Frc consts  --     0.0000                 0.0000                 0.0000
 IR Inten    --     0.5494                 0.3465                 0.0554
 Raman Activ --     0.0000                 0.0000                 0.0000
 Depolar     --     0.0000                 0.0000                 0.0000
 Atom AN      X      Y      Z        X      Y      Z        X      Y      Z
   1   6    -0.04  -0.01  -0.03     0.02   0.01  -0.03    -0.02  -0.01  -0.01
   2   6     0.05  -0.03   0.10     0.08  -0.02   0.15    -0.02  -0.04  -0.02
   3   6     0.05  -0.02   0.13    -0.04  -0.01  -0.08     0.08  -0.00   0.19
   4   6     0.02   0.01   0.00    -0.01  -0.01  -0.01     0.06   0.05  -0.01
   5   6     0.01  -0.01   0.10    -0.03   0.01  -0.12    -0.03   0.01  -0.14
   6   6    -0.02  -0.00  -0.10     0.02   0.00   0.08    -0.01  -0.00   0.09
   7   6     0.02  -0.04  -0.02    -0.01   0.01   0.01    -0.00   0.02   0.00
   8   6    -0.01  -0.01  -0.01     0.01  -0.01   0.02    -0.01   0.01  -0.03
   9   6    -0.06   0.04  -0.11    -0.05   0.02  -0.09     0.01  -0.02   0.01
  10   6    -0.01   0.02  -0.03    -0.02   0.03  -0.05    -0.02   0.01  -0.01
  11   6     0.03  -0.00   0.00     0.03  -0.01   0.00    -0.02   0.00   0.01
  12   1     0.04   0.04  -0.07    -0.07   0.00   0.04     0.04   0.04  -0.07
  13   1    -0.02  -0.02   0.12    -0.01   0.02   0.09    -0.01  -0.03   0.07
  14   1     0.14   0.05   0.08     0.04  -0.07   0.01     0.09   0.06   0.05
  15   1     0.05   0.02  -0.27     0.07   0.07  -0.41    -0.01   0.06   0.05
  16   1    -0.25   0.03  -0.12    -0.37   0.03  -0.19     0.05   0.02   0.03
  17   1    -0.27   0.05  -0.15     0.20  -0.02   0.12    -0.42   0.04  -0.24
  18   1     0.08   0.02  -0.30    -0.05  -0.00   0.22     0.11   0.02  -0.46
[...]
 IR Inten    --    21.1343                16.7170                15.5752
 Raman Activ --     0.0000                 0.0000                 0.0000
 Depolar     --     0.0000                 0.0000                 0.0000
 Atom AN      X      Y      Z        X      Y      Z        X      Y      Z
   1   6     0.00  -0.00  -0.00    -0.02   0.00   0.01    -0.01   0.00   0.00
   2   6    -0.04  -0.00   0.04     0.16   0.01  -0.15     0.04   0.00  -0.04
   3   6     0.05  -0.00  -0.01     0.05  -0.01   0.03     0.04  -0.00   0.01
   4   6     0.06   0.03  -0.03    -0.07  -0.07  -0.00     0.02   0.01  -0.01
   5   6    -0.01  -0.14   0.06    -0.01  -0.06   0.03     0.00  -0.02   0.01
   6   6    -0.05  -0.11  -0.06    -0.01  -0.01  -0.01    -0.02  -0.05  -0.03
   7   6    -0.04   0.01   0.06    -0.02   0.03   0.02     0.04  -0.10  -0.02
   8   6    -0.07   0.02   0.01    -0.01   0.01   0.01    -0.01   0.00  -0.05
   9   6    -0.01   0.01   0.01     0.01  -0.00  -0.02    -0.08   0.03   0.12
  10   6     0.08  -0.03  -0.06     0.02  -0.01  -0.01    -0.10   0.04   0.09
  11   6    -0.01   0.00   0.00    -0.00   0.00   0.00     0.01  -0.01  -0.01
  12   1     0.00   0.00   0.00    -0.01  -0.01  -0.00    -0.00   0.00   0.00
  13   1    -0.01   0.00  -0.00     0.06  -0.00   0.01     0.02  -0.00   0.00
  14   1    -0.01  -0.00   0.02     0.03   0.01  -0.07     0.01   0.00  -0.02
  15   1     0.07  -0.00   0.02    -0.25   0.02  -0.06    -0.04   0.00  -0.01
  16   1     0.08   0.01  -0.15    -0.32  -0.04   0.62    -0.08  -0.01   0.16
  17   1    -0.04  -0.00   0.07     0.06  -0.00  -0.08     0.01  -0.00  -0.00
  18   1    -0.14   0.02  -0.03    -0.24   0.03  -0.05    -0.13   0.02  -0.03
  19   1    -0.06  -0.12  -0.12     0.12   0.25   0.23    -0.02  -0.05  -0.04
  20   1    -0.14   0.01   0.23     0.12  -0.01  -0.21    -0.05   0.00   0.09
  21   1     0.01   0.46  -0.28     0.00   0.20  -0.13     0.00   0.08  -0.05
  22   1     0.02   0.02   0.04     0.01   0.01   0.02    -0.01  -0.02  -0.01
  23   1    -0.01   0.00  -0.02    -0.00  -0.01   0.01    -0.00   0.01  -0.01
  24   1     0.18   0.36   0.25     0.03   0.06   0.04     0.09   0.18   0.13
  25   1     0.13  -0.05  -0.24     0.07  -0.02  -0.13    -0.16   0.05   0.29
  26   1    -0.01   0.01   0.00    -0.00  -0.10   0.07     0.01   0.32  -0.23
  27   1     0.02  -0.01  -0.06     0.02  -0.01  -0.04    -0.09   0.03   0.17
  28   1     0.22  -0.08   0.03     0.04  -0.01   0.01     0.13  -0.05   0.01
  29   1     0.02  -0.01  -0.05    -0.02   0.01   0.06     0.18  -0.07  -0.47
  30   1     0.03  -0.01   0.00    -0.01   0.00  -0.00     0.09  -0.04   0.02
  31   1    -0.07   0.02   0.22    -0.01   0.00   0.04     0.11  -0.04  -0.34
  32   1    -0.20   0.08  -0.01    -0.05   0.02  -0.00     0.23  -0.09   0.02
  33   1     0.02  -0.01   0.00     0.01  -0.00   0.00    -0.04   0.01  -0.00
  34   1     0.01  -0.00  -0.02     0.00  -0.00  -0.01    -0.02   0.01   0.06
  35   1    -0.00   0.00   0.00    -0.00  -0.00  -0.00     0.01   0.01   0.00
                     85                     86                     87
                        a                      a                      a 
 Frequencies --  2976.2475              2977.7534              2981.1314
 Red. masses --     1.6232                 1.5708                 1.4935
 Frc consts  --     0.0000                 0.0000                 0.0000
 IR Inten    --   154.7614                96.7945                16.8537
 Raman Activ --     0.0000                 0.0000                 0.0000
 Depolar     --     0.0000                 0.0000                 0.0000
 Atom AN      X      Y      Z        X      Y      Z        X      Y      Z
   1   6    -0.01   0.00   0.01    -0.01   0.00   0.00     0.00   0.00   0.00
   2   6     0.05   0.00  -0.07     0.02   0.00  -0.05    -0.01   0.00  -0.01
   3   6     0.07  -0.01   0.02     0.06  -0.00   0.01    -0.00  -0.00   0.01
   4   6     0.09   0.06  -0.03     0.08   0.07  -0.02     0.00   0.00   0.00
   5   6     0.00   0.04  -0.02     0.00   0.06  -0.04    -0.00  -0.00  -0.01
   6   6    -0.00  -0.02  -0.00     0.02   0.05   0.04    -0.00   0.01  -0.01
   7   6     0.04  -0.07  -0.03    -0.05   0.11   0.02    -0.01   0.01   0.02
   8   6     0.06  -0.02   0.04    -0.05   0.02  -0.03    -0.02   0.01   0.06
   9   6     0.04  -0.02  -0.09    -0.01   0.01   0.06     0.03  -0.02   0.05
  10   6     0.04  -0.02  -0.06    -0.01   0.00   0.04    -0.13   0.05  -0.12
  11   6    -0.00   0.00   0.01     0.00  -0.00  -0.01     0.02   0.01   0.01
  12   1    -0.00  -0.00  -0.00    -0.00  -0.00  -0.00     0.00  -0.00  -0.00
  13   1     0.03  -0.00   0.01     0.02  -0.00   0.00    -0.00   0.00  -0.00
  14   1     0.01   0.00  -0.03     0.01   0.00  -0.02     0.00   0.00  -0.00
  15   1    -0.04   0.00  -0.02     0.03  -0.00  -0.00     0.05  -0.00   0.01
  16   1    -0.14  -0.02   0.26    -0.10  -0.01   0.19    -0.01  -0.00   0.02
  17   1     0.03  -0.00  -0.03     0.02  -0.00  -0.02     0.02   0.00  -0.04
  18   1    -0.29   0.04  -0.06    -0.22   0.03  -0.05    -0.02   0.00  -0.00
  19   1    -0.12  -0.25  -0.23    -0.13  -0.25  -0.23    -0.00  -0.01  -0.01
  20   1    -0.20   0.01   0.34    -0.17   0.01   0.29    -0.00   0.00   0.00
  21   1    -0.00  -0.14   0.09    -0.01  -0.22   0.14    -0.00  -0.01   0.01
  22   1    -0.00   0.00  -0.00     0.01   0.02   0.01     0.01   0.02   0.01
  23   1     0.00   0.02  -0.01     0.00   0.03  -0.01    -0.00  -0.04   0.03
  24   1     0.02   0.04   0.03    -0.10  -0.20  -0.14     0.00   0.01   0.00
  25   1    -0.14   0.05   0.26     0.18  -0.05  -0.32     0.05  -0.02  -0.09
  26   1     0.01   0.21  -0.15    -0.01  -0.33   0.24    -0.00  -0.00   0.01
  27   1     0.07  -0.02  -0.12    -0.05   0.02   0.08     0.11  -0.04  -0.22
  28   1    -0.28   0.10  -0.03     0.23  -0.08   0.03    -0.04   0.01   0.00
  29   1    -0.13   0.05   0.33     0.09  -0.04  -0.22     0.09  -0.04  -0.20
  30   1    -0.01   0.00  -0.01    -0.05   0.02   0.01    -0.23   0.09  -0.01
  31   1    -0.07   0.02   0.20     0.06  -0.02  -0.16    -0.19   0.07   0.46
  32   1    -0.08   0.03  -0.01    -0.01   0.00   0.01     0.66  -0.25  -0.00
  33   1     0.01  -0.01   0.00    -0.00   0.00  -0.00    -0.05   0.02   0.00
  34   1     0.01  -0.00  -0.04    -0.01   0.00   0.03     0.01   0.00  -0.02
  35   1    -0.01  -0.01  -0.00     0.00   0.00   0.00    -0.03  -0.03  -0.02
                     88                     89                     90
                        a                      a                      a 
 Frequencies --  2987.1461              2988.7366              2991.3939
 Red. masses --     1.7056                 1.6735                 1.5556
 Frc consts  --     0.0000                 0.0000                 0.0000
 IR Inten    --    12.5417               112.4074                34.2800
 Raman Activ --     0.0000                 0.0000                 0.0000
 Depolar     --     0.0000                 0.0000                 0.0000
 Atom AN      X      Y      Z        X      Y      Z        X      Y      Z
   1   6     0.02   0.00  -0.00    -0.01   0.00   0.02    -0.03  -0.02  -0.03
   2   6    -0.11   0.01  -0.03     0.09  -0.00  -0.01     0.13  -0.01   0.11
   3   6    -0.05  -0.00   0.10     0.05   0.01  -0.14     0.01  -0.01   0.11
   4   6    -0.01   0.00   0.03     0.01  -0.00  -0.03    -0.00   0.01   0.02
   5   6     0.02   0.02   0.03     0.01   0.01   0.01    -0.01  -0.01  -0.03
   6   6    -0.00   0.01  -0.02     0.00  -0.03   0.02    -0.00   0.01  -0.02
   7   6     0.02   0.00  -0.04     0.01   0.00  -0.03     0.00   0.00  -0.01
   8   6     0.04  -0.01  -0.13     0.02  -0.01  -0.12     0.01  -0.00  -0.03
   9   6     0.10  -0.04  -0.03     0.06  -0.03  -0.03     0.04  -0.02   0.00
  10   6     0.03  -0.01  -0.04    -0.00   0.00  -0.05     0.01  -0.00  -0.01
  11   6    -0.01   0.00   0.01    -0.00   0.01   0.01    -0.00   0.00  -0.00
  12   1    -0.00  -0.01  -0.01    -0.00  -0.00  -0.00     0.03   0.07   0.05
  13   1    -0.06   0.01  -0.01     0.03  -0.00   0.01     0.10  -0.01   0.01
  14   1    -0.01  -0.00   0.03     0.03   0.00  -0.06    -0.03  -0.01   0.05
  15   1     0.43  -0.03   0.06    -0.31   0.02  -0.05    -0.68   0.04  -0.08
  16   1    -0.05  -0.00   0.06    -0.02  -0.00   0.05     0.20   0.02  -0.33
  17   1     0.23   0.00  -0.37    -0.32  -0.01   0.51     0.22   0.00  -0.34
  18   1    -0.07   0.01   0.00     0.16  -0.02   0.01    -0.25   0.03  -0.04
  19   1    -0.01  -0.01  -0.01     0.01   0.02   0.01    -0.02  -0.04  -0.04
  20   1     0.05  -0.00  -0.08    -0.06   0.00   0.10     0.03   0.00  -0.04
  21   1     0.00   0.05  -0.03     0.00  -0.00   0.01    -0.00  -0.05   0.02
  22   1    -0.06  -0.11  -0.08    -0.03  -0.05  -0.04     0.05   0.09   0.07
  23   1    -0.00  -0.09   0.06     0.00   0.12  -0.08    -0.00  -0.08   0.05
  24   1     0.02   0.04   0.03    -0.01  -0.02  -0.01     0.01   0.02   0.01
  25   1    -0.07   0.02   0.12    -0.04   0.02   0.08    -0.01   0.01   0.02
  26   1     0.00  -0.04   0.02     0.00  -0.03   0.02     0.00  -0.02   0.01
  27   1    -0.24   0.08   0.48    -0.22   0.07   0.44    -0.06   0.02   0.13
  28   1     0.12  -0.04  -0.00     0.16  -0.06   0.00     0.03  -0.01  -0.00
  29   1    -0.03   0.01   0.10    -0.04   0.02   0.12     0.01  -0.00  -0.01
  30   1    -0.32   0.13  -0.02    -0.19   0.08  -0.02    -0.14   0.06  -0.01
  31   1    -0.05   0.02   0.15    -0.08   0.03   0.20    -0.01   0.00   0.03
  32   1    -0.04   0.01  -0.01     0.09  -0.03  -0.01    -0.01   0.00  -0.00
  33   1     0.03  -0.01   0.00     0.01  -0.00   0.00     0.02  -0.01   0.00
  34   1     0.01  -0.00  -0.03     0.01  -0.00  -0.03    -0.00   0.00   0.00
  35   1    -0.00  -0.00   0.00    -0.01  -0.01  -0.01    -0.00   0.00   0.00
                     91                     92                     93
                        a                      a                      a 
 Frequencies --  2993.8211              3010.4686              3014.9795
 Red. masses --     1.5915                 1.6972                 1.6452
 Frc consts  --     0.0000                 0.0000                 0.0000
 IR Inten    --    57.9622                60.5706                84.9795
 Raman Activ --     0.0000                 0.0000                 0.0000
 Depolar     --     0.0000                 0.0000                 0.0000
 Atom AN      X      Y      Z        X      Y      Z        X      Y      Z
   1   6    -0.00  -0.00  -0.01     0.01  -0.00  -0.01     0.02   0.01   0.02
   2   6    -0.01   0.00   0.01    -0.02   0.00   0.00    -0.03   0.00  -0.01
   3   6    -0.01  -0.00   0.04    -0.02  -0.00   0.03    -0.00   0.00  -0.02
   4   6     0.00   0.00   0.01    -0.01  -0.01   0.00    -0.01  -0.02  -0.03
   5   6     0.00  -0.00   0.00    -0.03  -0.08  -0.03    -0.09  -0.13  -0.15
   6   6     0.01  -0.02   0.03     0.01  -0.17   0.14    -0.01   0.03  -0.06
   7   6    -0.00   0.01  -0.01    -0.00  -0.03   0.03     0.01   0.01  -0.02
   8   6    -0.04   0.02  -0.06     0.01  -0.01   0.00     0.01  -0.00  -0.03
   9   6    -0.16   0.07  -0.08     0.04  -0.02   0.01    -0.00   0.00  -0.01
  10   6    -0.07   0.02  -0.04     0.01  -0.00   0.00    -0.00  -0.00  -0.00
  11   6     0.03   0.00   0.02    -0.01  -0.00  -0.01     0.00   0.00   0.01
  12   1     0.00   0.00   0.00     0.00   0.01   0.00    -0.02  -0.04  -0.03
  13   1     0.01  -0.00   0.00    -0.03   0.00  -0.01    -0.06   0.01  -0.01
  14   1    -0.01  -0.00   0.02    -0.02  -0.00   0.04     0.01   0.00  -0.02
  15   1     0.01  -0.00   0.00     0.06  -0.00   0.01     0.13  -0.01   0.02
  16   1     0.01   0.00  -0.03     0.00   0.00  -0.01    -0.03  -0.00   0.04
  17   1     0.09   0.00  -0.15     0.08   0.00  -0.13    -0.04  -0.00   0.06
  18   1    -0.07   0.01  -0.01    -0.01   0.00   0.00     0.04  -0.01   0.01
  19   1    -0.01  -0.02  -0.02     0.01   0.02   0.02     0.04   0.07   0.06
  20   1     0.01   0.00  -0.01     0.02  -0.00  -0.03    -0.03  -0.00   0.04
  21   1    -0.00   0.01  -0.00    -0.00   0.04  -0.03    -0.02  -0.17   0.07
  22   1     0.00  -0.00  -0.00     0.12   0.23   0.18     0.34   0.63   0.48
  23   1     0.00   0.14  -0.09    -0.00   0.72  -0.47    -0.00  -0.23   0.14
  24   1    -0.02  -0.05  -0.03    -0.04  -0.11  -0.04     0.05   0.11   0.07
  25   1    -0.00   0.00  -0.00     0.01  -0.01  -0.02    -0.03   0.01   0.04
  26   1    -0.00  -0.05   0.03     0.00   0.09  -0.06     0.00  -0.03   0.02
  27   1    -0.10   0.03   0.20     0.00  -0.00   0.00    -0.06   0.02   0.11
  28   1     0.22  -0.08   0.02    -0.04   0.01  -0.01     0.02  -0.01  -0.00
  29   1    -0.12   0.05   0.24     0.02  -0.01  -0.04    -0.01   0.01   0.03
  30   1     0.69  -0.28   0.03    -0.16   0.07  -0.01     0.03  -0.01   0.00
  31   1    -0.07   0.02   0.15     0.00  -0.00  -0.01    -0.01   0.00   0.02
  32   1     0.29  -0.11  -0.00    -0.03   0.01  -0.00     0.01  -0.00  -0.00
  33   1    -0.09   0.03   0.00     0.03  -0.01  -0.00    -0.01   0.00   0.00
  34   1     0.02  -0.00  -0.04    -0.01   0.00   0.01     0.01  -0.00  -0.02
  35   1    -0.03  -0.04  -0.03     0.01   0.02   0.01    -0.00  -0.00  -0.00
                     94                     95                     96
                        a                      a                      a 
 Frequencies --  3029.9027              3031.1765              3031.9649
 Red. masses --     1.9515                 1.9333                 1.9392
 Frc consts  --     0.0000                 0.0000                 0.0000
 IR Inten    --    63.6088                77.3407                52.0614
 Raman Activ --     0.0000                 0.0000                 0.0000
 Depolar     --     0.0000                 0.0000                 0.0000
 Atom AN      X      Y      Z        X      Y      Z        X      Y      Z
   1   6     0.12  -0.09  -0.25     0.24   0.12   0.08     0.04   0.03   0.01
   2   6     0.02  -0.00  -0.03     0.05   0.00   0.01     0.01   0.00   0.00
   3   6     0.01   0.00  -0.02     0.01  -0.00   0.01     0.00  -0.00   0.00
   4   6     0.00  -0.00  -0.01     0.00   0.00   0.00     0.00   0.00   0.00
   5   6    -0.00   0.00  -0.00     0.01   0.01   0.01     0.00   0.00   0.00
   6   6    -0.00   0.01  -0.01     0.00   0.00   0.00     0.00   0.00  -0.00
   7   6     0.00   0.00  -0.00    -0.00   0.00   0.00    -0.00   0.00   0.00
   8   6    -0.00   0.00  -0.00    -0.00   0.00   0.00    -0.00   0.00   0.00
   9   6    -0.00   0.00  -0.00     0.00  -0.00   0.00    -0.02   0.01   0.00
  10   6     0.00   0.00   0.00     0.01  -0.00  -0.00    -0.04   0.01   0.02
  11   6     0.01   0.00   0.01     0.04  -0.01  -0.02    -0.26   0.07   0.10
  12   1     0.18   0.35   0.26    -0.19  -0.50  -0.40    -0.04  -0.10  -0.08
  13   1    -0.26   0.01  -0.07    -0.60   0.07  -0.07    -0.08   0.01  -0.01
  14   1    -0.35  -0.06   0.68    -0.06   0.01   0.19    -0.02  -0.00   0.06
  15   1    -0.02   0.00  -0.01    -0.15   0.01  -0.02    -0.02   0.00  -0.00
  16   1    -0.06  -0.00   0.11     0.01   0.00  -0.01    -0.00  -0.00   0.00
  17   1    -0.04   0.00   0.06     0.01  -0.00  -0.01     0.00  -0.00  -0.00
  18   1     0.02  -0.00  -0.00    -0.05   0.00  -0.01    -0.01   0.00  -0.00
  19   1     0.00   0.00   0.00    -0.00  -0.01  -0.01    -0.00  -0.00  -0.00
  20   1    -0.01  -0.00   0.01    -0.00   0.00   0.00    -0.00   0.00   0.00
  21   1    -0.00  -0.01   0.00     0.00   0.01  -0.00     0.00  -0.00   0.00
  22   1     0.00   0.01   0.00    -0.02  -0.04  -0.03    -0.01  -0.01  -0.01
  23   1    -0.00  -0.03   0.02     0.00   0.00  -0.00     0.00  -0.01   0.01
  24   1     0.00   0.01   0.00    -0.00  -0.01  -0.00    -0.00  -0.00  -0.00
  25   1    -0.00   0.00   0.00     0.00  -0.00  -0.00     0.00  -0.00  -0.00
  26   1     0.00  -0.01   0.00    -0.00  -0.00   0.00    -0.00  -0.00   0.00
  27   1    -0.00   0.00   0.00     0.00  -0.00  -0.00     0.00  -0.00  -0.01
  28   1     0.00  -0.00   0.00    -0.00   0.00   0.00     0.01  -0.00   0.00
  29   1    -0.00   0.00   0.00     0.00  -0.00  -0.00     0.00  -0.00  -0.01
  30   1     0.00  -0.00  -0.00    -0.01   0.00  -0.00     0.06  -0.02   0.00
  31   1     0.00  -0.00  -0.00    -0.00   0.00   0.01     0.02  -0.01  -0.05
  32   1     0.00  -0.00   0.00    -0.01   0.00  -0.00     0.10  -0.04   0.00
  33   1    -0.02   0.01   0.00    -0.12   0.05  -0.00     0.75  -0.29   0.03
  34   1     0.01  -0.00  -0.02    -0.03   0.01   0.09     0.12  -0.04  -0.43
  35   1    -0.02  -0.02  -0.02    -0.01  -0.02  -0.02     0.03   0.08   0.07
                     97                     98                     99
                        a                      a                      a 
 Frequencies --  3035.1435              3037.6546              3040.8705
 Red. masses --     1.9148                 1.2659                 1.2910
 Frc consts  --     0.0000                 0.0000                 0.0000
 IR Inten    --    66.9769                30.9658                30.3112
 Raman Activ --     0.0000                 0.0000                 0.0000
 Depolar     --     0.0000                 0.0000                 0.0000
 Atom AN      X      Y      Z        X      Y      Z        X      Y      Z
   1   6    -0.00   0.00   0.01    -0.07   0.11  -0.07     0.00   0.00  -0.00
   2   6    -0.00  -0.00   0.00    -0.01   0.01  -0.01     0.00  -0.00   0.00
   3   6    -0.00  -0.00   0.00    -0.00   0.00  -0.01     0.00  -0.00   0.00
   4   6    -0.00   0.00   0.00    -0.00  -0.00  -0.00     0.00   0.00   0.00
   5   6     0.00  -0.00   0.00    -0.00  -0.00  -0.00     0.00   0.00   0.00
   6   6     0.00  -0.00   0.00    -0.00  -0.00  -0.00     0.00   0.00   0.00
   7   6    -0.00  -0.00   0.00     0.00  -0.00  -0.00    -0.00   0.00   0.00
   8   6     0.00  -0.00   0.01     0.00  -0.00  -0.00    -0.00   0.00  -0.00
   9   6     0.01  -0.00   0.01     0.00  -0.00   0.00     0.00  -0.00   0.00
  10   6     0.01  -0.00   0.03     0.00  -0.00   0.00    -0.00  -0.00   0.00
  11   6     0.11   0.09   0.25     0.01   0.00   0.00    -0.06  -0.14   0.03
  12   1    -0.00  -0.01  -0.00    -0.16  -0.35  -0.29    -0.00  -0.01  -0.01
  13   1    -0.02   0.00  -0.00     0.67  -0.04   0.08    -0.00   0.00  -0.00
  14   1     0.02   0.00  -0.04    -0.25  -0.02   0.46    -0.01  -0.00   0.01
  15   1    -0.00   0.00   0.00     0.05  -0.00   0.00    -0.01   0.00  -0.00
  16   1     0.01   0.00  -0.01    -0.01   0.00   0.02     0.00   0.00  -0.00
  17   1     0.01  -0.00  -0.01    -0.01   0.00   0.02    -0.00   0.00   0.00
  18   1    -0.00   0.00   0.00     0.03  -0.00   0.00    -0.00   0.00  -0.00
  19   1    -0.00  -0.00  -0.00     0.00   0.01   0.00    -0.00  -0.00  -0.00
  20   1     0.00   0.00  -0.00    -0.00  -0.00  -0.00    -0.00   0.00   0.00
  21   1     0.00   0.01  -0.00    -0.00  -0.00  -0.00     0.00  -0.00   0.00
  22   1    -0.00  -0.00  -0.00     0.01   0.01   0.01    -0.00  -0.00  -0.00
  23   1    -0.00   0.02  -0.01    -0.00  -0.00   0.00     0.00   0.00  -0.00
  24   1    -0.00  -0.00  -0.00     0.00   0.00   0.00    -0.00  -0.00  -0.00
  25   1     0.00  -0.00  -0.01    -0.00   0.00   0.00     0.00  -0.00  -0.00
  26   1     0.00   0.01  -0.00     0.00   0.00  -0.00    -0.00  -0.00   0.00
  27   1     0.01  -0.00  -0.02    -0.00   0.00   0.00     0.00   0.00  -0.00
  28   1    -0.01   0.00  -0.00    -0.00   0.00  -0.00     0.00  -0.00   0.00
  29   1     0.02  -0.01  -0.05     0.00  -0.00  -0.00     0.00  -0.00  -0.01
  30   1    -0.05   0.02  -0.00    -0.01   0.01  -0.00    -0.01   0.00   0.00
  31   1     0.03  -0.01  -0.09     0.00  -0.00  -0.00     0.00  -0.00  -0.01
  32   1    -0.05   0.02   0.00    -0.01   0.00  -0.00     0.00  -0.00   0.00
  33   1    -0.27   0.12   0.03    -0.04   0.01  -0.00    -0.38   0.13  -0.00
  34   1     0.25  -0.06  -0.61     0.00   0.00   0.00     0.16  -0.07  -0.49
  35   1    -0.37  -0.40  -0.28    -0.02  -0.02  -0.02     0.44   0.46   0.37
