 Entering Gaussian System
 *********************************************
 Gaussian 98:
 frequency output generated by the xtb code
 *********************************************
                         Standard orientation:
 --------------------------------------------------------------------
  Center     Atomic     Atomic              Coordinates (Angstroms)
  Number     Number      Type              X           Y           Z
 --------------------------------------------------------------------
    1          6             0        2.227200   -2.018027   -0.004898
    2          6             0        2.901285   -0.822842    0.659592
    3          6             0        2.952594    0.417552   -0.235056
    4          6             0        1.585808    0.959030   -0.656583
    5          6             0        0.764187    1.491409    0.514864
    6          6             0       -0.561343    2.121162    0.082869
    7          6             0       -1.531303    1.162791   -0.611743
    8          6             0       -1.938480   -0.027676    0.253290
    9          6             0       -2.977362   -0.906034   -0.439748
   10          6             0       -3.361400   -2.109121    0.413130
   11          1             0        2.682990   -2.223421   -0.971082
   12          1             0        2.330362   -2.903690    0.617993
   13          1             0        1.166616   -1.836666   -0.157262
   14          1             0        2.385779   -0.586218    1.591879
   15          1             0        3.927496   -1.096380    0.917796
   16          1             0        3.498004    1.204611    0.292161
   17          1             0        3.520517    0.171103   -1.136098
   18          1             0        1.742023    1.771118   -1.371699
   19          1             0        1.033993    0.173192   -1.171100
   20          1             0        1.350959    2.251345    1.038068
   21          1             0        0.564995    0.689222    1.225086
   22          1             0       -0.352593    2.952682   -0.595365
   23          1             0       -1.052142    2.534468    0.967935
   24          1             0       -2.430262    1.723985   -0.880729
   25          1             0       -1.089245    0.799841   -1.541435
   26          1             0       -2.344957    0.335354    1.200424
   27          1             0       -1.062685   -0.637820    0.480271
   28          1             0       -3.869376   -0.312904   -0.654222
   29          1             0       -2.574995   -1.252769   -1.394791
   30          1             0       -3.790298   -1.784823    1.358923
   31          1             0       -4.093342   -2.727219   -0.101709
   32          1             0       -2.486714   -2.720074    0.627016
 --------------------------------------------------------------------
     1 basis functions        1 primitive gaussians
     1 alpha electrons        1 beta electrons
 
 Harmonic frequencies (cm**-1), IR intensities (KM/Mole),
 Raman scattering activities (A**4/amu), Raman depolarization ratios,
 reduced masses (AMU), force constants (mDyne/A) and normal coordinates:
                      1                      2                      3
                        a                      a                      a 
 Frequencies --    20.1493                29.6207                50.5612
 Red. masses --    99.0000                99.0000                99.0000
 Frc consts  --    99.0000                99.0000                99.0000
 IR Inten    --    99.0000                99.0000                99.0000
 Raman Activ --     0.0000                 0.0000                 0.0000
 Depolar     --     0.0000                 0.0000                 0.0000
 Atom AN      X      Y      Z        X      Y      Z        X      Y      Z
   1   6    -0.25  -0.03  -0.36    -0.33  -0.05   0.29    -0.49   0.26   0.11
   2   6    -0.34  -0.20   0.03    -0.12  -0.01   0.00     0.07   0.06  -0.10
   3   6    -0.03  -0.03   0.27    -0.14  -0.14  -0.18     0.14   0.06  -0.09
   4   6     0.10   0.17   0.08    -0.16  -0.09  -0.07     0.17   0.16  -0.05
   5   6    -0.02   0.20  -0.02     0.03   0.09  -0.02     0.10  -0.09   0.02
   6   6    -0.02   0.09  -0.17     0.01   0.14   0.09     0.06  -0.12   0.08
   7   6     0.05  -0.04  -0.10    -0.05   0.19   0.10     0.09  -0.13   0.04
   8   6     0.09   0.03   0.02     0.13   0.05  -0.00    -0.09  -0.04   0.08
   9   6     0.18  -0.12   0.07     0.17   0.03  -0.03     0.15  -0.17  -0.10
  10   6     0.24  -0.06   0.19     0.44  -0.17  -0.19    -0.16   0.00   0.01
  11   1    -0.01   0.03  -0.08    -0.14  -0.07   0.07    -0.27   0.05  -0.02
  12   1    -0.14  -0.04  -0.14    -0.09   0.01   0.12    -0.13   0.06   0.01
  13   1    -0.06   0.02  -0.17    -0.10   0.01   0.12    -0.14   0.15   0.16
  14   1    -0.16  -0.10  -0.02     0.02   0.05   0.01     0.13   0.06   0.02
  15   1    -0.12  -0.09   0.07    -0.03  -0.02  -0.03     0.02  -0.07  -0.12
  16   1    -0.02  -0.05   0.15    -0.00  -0.03  -0.11     0.07   0.00  -0.03
  17   1     0.04   0.02   0.10    -0.08  -0.09  -0.07     0.02   0.00  -0.04
  18   1     0.09   0.05   0.04    -0.06  -0.05  -0.05     0.06   0.09   0.04
  19   1     0.03   0.08  -0.02    -0.08  -0.03   0.03     0.06   0.08  -0.07
  20   1    -0.03   0.08  -0.01     0.04   0.03  -0.05     0.01  -0.04   0.05
  21   1    -0.01   0.07   0.00     0.02   0.05   0.02     0.04  -0.06  -0.03
  22   1    -0.01   0.00  -0.07    -0.00   0.05   0.03     0.01  -0.02   0.03
  23   1    -0.02   0.05  -0.07     0.02   0.03   0.04     0.01  -0.06   0.03
  24   1     0.01  -0.03  -0.05    -0.03   0.05   0.09     0.04  -0.03  -0.03
  25   1     0.03  -0.03  -0.01    -0.05   0.10  -0.00     0.05  -0.07   0.03
  26   1     0.01   0.03  -0.01     0.05  -0.03   0.02    -0.10   0.02  -0.02
  27   1     0.04   0.03   0.03     0.06   0.03  -0.04    -0.04   0.01   0.12
  28   1     0.04  -0.06  -0.00     0.02  -0.02   0.05     0.06  -0.06  -0.15
  29   1     0.07  -0.05   0.04     0.03   0.07  -0.04     0.14  -0.11   0.03
  30   1     0.05   0.00   0.04     0.15  -0.12  -0.02    -0.15   0.06  -0.06
  31   1     0.09  -0.05   0.07     0.13  -0.05  -0.06     0.01  -0.03  -0.04
  32   1     0.08   0.01   0.08     0.16  -0.03  -0.12    -0.07   0.02   0.13
                      4                      5                      6
                        a                      a                      a 
 Frequencies --    64.9146               105.8249               140.1222
 Red. masses --    99.0000                99.0000                99.0000
 Frc consts  --    99.0000                99.0000                99.0000
 IR Inten    --    99.0000                99.0000                99.0000
 Raman Activ --     0.0000                 0.0000                 0.0000
 Depolar     --     0.0000                 0.0000                 0.0000
 Atom AN      X      Y      Z        X      Y      Z        X      Y      Z
   1   6    -0.22   0.16   0.05    -0.02  -0.03   0.02     0.06  -0.05   0.05
   2   6    -0.00   0.04   0.04    -0.09   0.03  -0.02    -0.25   0.11   0.08
   3   6     0.11   0.06   0.08    -0.12  -0.00  -0.06     0.04  -0.05  -0.13
   4   6     0.17   0.13  -0.01    -0.14   0.02   0.03     0.14   0.19  -0.19
   5   6     0.02  -0.07  -0.03    -0.01   0.13   0.06     0.16   0.12  -0.14
   6   6     0.02  -0.10  -0.08    -0.07   0.04   0.13     0.05  -0.01   0.04
   7   6     0.05  -0.12  -0.09     0.06   0.00   0.02     0.01  -0.10   0.21
   8   6     0.19  -0.21  -0.14     0.46  -0.31  -0.23    -0.01  -0.09   0.23
   9   6    -0.34   0.17   0.17     0.21  -0.11  -0.11     0.01   0.01   0.06
  10   6     0.01  -0.08  -0.01    -0.25   0.21   0.13    -0.19  -0.11  -0.20
  11   1    -0.10   0.04   0.00     0.01  -0.02   0.02     0.26  -0.19   0.17
  12   1    -0.08   0.03   0.00    -0.01   0.00   0.02    -0.21   0.07   0.17
  13   1    -0.06   0.09   0.04    -0.01  -0.02  -0.01     0.07   0.04  -0.30
  14   1     0.03   0.02   0.02    -0.03   0.01  -0.01    -0.18   0.08  -0.05
  15   1    -0.01  -0.03  -0.01    -0.02   0.02   0.00    -0.10   0.05   0.16
  16   1     0.03   0.01   0.04    -0.02   0.00  -0.04     0.06  -0.03  -0.07
  17   1     0.05   0.02   0.03    -0.06  -0.01  -0.03    -0.00  -0.09  -0.02
  18   1     0.07   0.07   0.04    -0.05  -0.01  -0.01     0.09   0.07  -0.02
  19   1     0.07   0.06  -0.06    -0.06  -0.00   0.04     0.02   0.09  -0.09
  20   1    -0.02  -0.03   0.04     0.01   0.06  -0.02     0.04   0.04  -0.05
  21   1    -0.00  -0.05  -0.04     0.02   0.06   0.05     0.08   0.03  -0.04
  22   1     0.01  -0.03  -0.02    -0.05   0.04   0.07    -0.04  -0.01  -0.01
  23   1    -0.00  -0.03  -0.03    -0.03  -0.03   0.05     0.05  -0.01   0.03
  24   1    -0.00  -0.04   0.01    -0.03  -0.04   0.09    -0.00  -0.03   0.07
  25   1     0.00  -0.01  -0.04    -0.01   0.11  -0.05    -0.01  -0.04   0.06
  26   1     0.21  -0.09   0.03     0.23  -0.18   0.01    -0.02  -0.03   0.06
  27   1     0.05  -0.13  -0.20     0.16  -0.10  -0.21    -0.01  -0.03   0.07
  28   1    -0.11   0.10   0.26     0.12   0.04  -0.07     0.02   0.03   0.02
  29   1    -0.28   0.13  -0.05     0.04  -0.12  -0.01     0.02   0.04   0.01
  30   1     0.20  -0.10   0.11    -0.08   0.17   0.00    -0.09  -0.07  -0.06
  31   1    -0.13   0.07   0.07    -0.11   0.09   0.06    -0.05   0.01  -0.12
  32   1     0.01  -0.09  -0.24    -0.14  -0.00   0.11    -0.08  -0.06  -0.05
                      7                      8                      9
                        a                      a                      a 
 Frequencies --   161.0240               232.9010               202.9328
 Red. masses --    99.0000                99.0000                99.0000
 Frc consts  --    99.0000                99.0000                99.0000
 IR Inten    --    99.0000                99.0000                99.0000
 Raman Activ --     0.0000                 0.0000                 0.0000
 Depolar     --     0.0000                 0.0000                 0.0000
 Atom AN      X      Y      Z        X      Y      Z        X      Y      Z
   1   6     0.03  -0.01   0.04    -0.01  -0.07   0.04    -0.00  -0.09   0.03
   2   6    -0.09   0.07   0.02     0.15  -0.08  -0.10     0.03  -0.01  -0.15
   3   6     0.02  -0.01  -0.08     0.02  -0.03  -0.03    -0.09  -0.03  -0.19
   4   6     0.06   0.11  -0.06     0.00   0.09   0.14    -0.14   0.11   0.20
   5   6    -0.10  -0.40   0.05    -0.04   0.12   0.10    -0.00   0.18   0.27
   6   6     0.01  -0.09   0.15    -0.03   0.03  -0.08    -0.06  -0.04   0.10
   7   6    -0.09   0.19  -0.10     0.01  -0.04  -0.07     0.35  -0.22  -0.22
   8   6    -0.06   0.08  -0.25     0.07  -0.06  -0.06    -0.08   0.06  -0.05
   9   6    -0.02  -0.06  -0.10    -0.19   0.11   0.10    -0.06   0.02  -0.03
  10   6     0.21   0.11   0.25     0.01  -0.05  -0.02     0.07   0.03   0.04
  11   1     0.17  -0.14   0.12     0.04  -0.12   0.05     0.08  -0.16   0.08
  12   1    -0.17   0.06   0.13    -0.10   0.02   0.08    -0.12   0.03   0.11
  13   1     0.05   0.06  -0.21     0.02   0.05  -0.06     0.03   0.02  -0.11
  14   1    -0.07   0.04  -0.02     0.09  -0.03   0.00     0.03   0.01  -0.03
  15   1    -0.04   0.03   0.06     0.06  -0.03  -0.09     0.02   0.01  -0.06
  16   1     0.03  -0.01  -0.04     0.04  -0.03  -0.02     0.05  -0.03  -0.11
  17   1    -0.01  -0.03  -0.02    -0.04   0.01  -0.04    -0.12  -0.03  -0.11
  18   1     0.04   0.12   0.08     0.01   0.03   0.05    -0.07   0.03   0.05
  19   1     0.04   0.09  -0.13    -0.02   0.04   0.03    -0.08   0.04   0.09
  20   1    -0.04  -0.20   0.15    -0.03   0.05   0.02    -0.01   0.09   0.04
  21   1    -0.08  -0.21  -0.10    -0.01   0.04   0.04     0.02   0.07   0.11
  22   1     0.04   0.02   0.11     0.00  -0.01  -0.04    -0.02   0.02   0.07
  23   1     0.01  -0.08   0.07    -0.03   0.03  -0.05    -0.11  -0.07   0.01
  24   1    -0.02   0.09   0.01    -0.00  -0.02  -0.02     0.14  -0.09  -0.25
  25   1    -0.04   0.10  -0.05     0.00  -0.01  -0.02     0.24  -0.13   0.03
  26   1    -0.01   0.00  -0.06     0.11  -0.03   0.02    -0.08   0.11  -0.08
  27   1    -0.00   0.04  -0.09     0.02  -0.05  -0.10    -0.07   0.00   0.11
  28   1    -0.03  -0.05  -0.04    -0.07   0.04   0.12    -0.03  -0.01   0.00
  29   1    -0.01  -0.06  -0.01    -0.12   0.07  -0.02    -0.03   0.00  -0.01
  30   1     0.06   0.09   0.05    -0.41  -0.07  -0.17     0.18   0.01   0.08
  31   1     0.09  -0.05   0.14     0.36  -0.27  -0.21    -0.10   0.07   0.10
  32   1     0.10   0.10   0.11     0.11   0.26   0.33     0.01  -0.06  -0.13
                     10                     11                     12
                        a                      a                      a 
 Frequencies --   244.1017               273.8128               256.5137
 Red. masses --    99.0000                99.0000                99.0000
 Frc consts  --    99.0000                99.0000                99.0000
 IR Inten    --    99.0000                99.0000                99.0000
 Raman Activ --     0.0000                 0.0000                 0.0000
 Depolar     --     0.0000                 0.0000                 0.0000
 Atom AN      X      Y      Z        X      Y      Z        X      Y      Z
   1   6    -0.01  -0.13   0.08     0.12  -0.24   0.13     0.08  -0.20   0.10
   2   6     0.34  -0.21  -0.14    -0.13  -0.00  -0.04    -0.02  -0.09   0.03
   3   6     0.10  -0.04   0.05    -0.08  -0.08  -0.16     0.08  -0.10  -0.01
   4   6     0.10   0.13   0.16     0.04   0.37   0.05     0.21   0.23  -0.09
   5   6    -0.09   0.14   0.03    -0.18  -0.12   0.12     0.20   0.31  -0.12
   6   6    -0.07   0.12  -0.19     0.01   0.07  -0.17    -0.11  -0.03   0.23
   7   6    -0.30   0.14   0.07     0.01  -0.04  -0.02    -0.09   0.08  -0.00
   8   6    -0.06  -0.01   0.00     0.11   0.02   0.12    -0.21  -0.03  -0.21
   9   6     0.06  -0.13  -0.05     0.12   0.04   0.08    -0.22  -0.11  -0.12
  10   6    -0.07  -0.05   0.00    -0.03  -0.00  -0.06     0.03  -0.04   0.11
  11   1     0.06  -0.22   0.09    -0.11   0.07  -0.06    -0.09   0.05  -0.05
  12   1    -0.19   0.02   0.14     0.30  -0.09  -0.04     0.21  -0.09  -0.04
  13   1     0.04   0.10  -0.10    -0.02  -0.23   0.24    -0.02  -0.16   0.19
  14   1     0.20  -0.08   0.02    -0.06   0.02  -0.03    -0.02  -0.02   0.00
  15   1     0.12  -0.09  -0.16    -0.03   0.05   0.02    -0.01  -0.01   0.03
  16   1     0.05  -0.04   0.04     0.08  -0.06  -0.09     0.07  -0.06  -0.00
  17   1    -0.00   0.04  -0.02    -0.10  -0.08  -0.08     0.01  -0.06   0.00
  18   1     0.08   0.06   0.07     0.08   0.21   0.15     0.13   0.06  -0.02
  19   1     0.02   0.08  -0.00     0.00   0.21  -0.13     0.03   0.10  -0.04
  20   1    -0.06   0.06   0.02    -0.09  -0.11   0.18     0.03   0.16  -0.10
  21   1    -0.04   0.05   0.01    -0.13  -0.12  -0.08     0.16   0.10   0.01
  22   1     0.01  -0.03  -0.12     0.07  -0.04  -0.10    -0.14   0.09   0.15
  23   1     0.00   0.13  -0.08    -0.02   0.11  -0.10    -0.02  -0.14   0.14
  24   1    -0.11   0.05   0.12    -0.01  -0.04  -0.01    -0.01   0.05   0.01
  25   1    -0.17   0.07  -0.03    -0.01  -0.04   0.00    -0.01   0.07  -0.01
  26   1    -0.03  -0.04   0.01     0.04   0.02   0.03    -0.07  -0.03  -0.05
  27   1     0.02   0.04  -0.02     0.03   0.01   0.03    -0.05  -0.00  -0.06
  28   1     0.02  -0.04  -0.06     0.05   0.03   0.01    -0.08  -0.06  -0.02
  29   1     0.05  -0.06   0.01     0.05   0.02   0.03    -0.08  -0.05  -0.04
  30   1     0.14   0.02   0.06    -0.02  -0.02  -0.01     0.03   0.02   0.03
  31   1    -0.17   0.10   0.08    -0.02   0.04  -0.05     0.02  -0.07   0.09
  32   1    -0.07  -0.13  -0.13    -0.03  -0.04  -0.02     0.04   0.04   0.04
                     13                     14                     15
                        a                      a                      a 
 Frequencies --   327.8619               398.5050               401.3629
 Red. masses --    99.0000                99.0000                99.0000
 Frc consts  --    99.0000                99.0000                99.0000
 IR Inten    --    99.0000                99.0000                99.0000
 Raman Activ --     0.0000                 0.0000                 0.0000
 Depolar     --     0.0000                 0.0000                 0.0000
 Atom AN      X      Y      Z        X      Y      Z        X      Y      Z
   1   6     0.01   0.23  -0.13    -0.05  -0.20   0.09    -0.04  -0.13   0.05
   2   6    -0.09   0.13   0.13    -0.15   0.06  -0.23    -0.10   0.04  -0.15
   3   6     0.12  -0.17  -0.21    -0.06   0.28   0.06    -0.03   0.19   0.04
   4   6     0.03  -0.08   0.26    -0.06   0.05  -0.03    -0.04   0.00  -0.03
   5   6     0.14   0.06   0.27     0.13  -0.00   0.08     0.12  -0.03   0.07
   6   6     0.23   0.02  -0.15     0.25  -0.02  -0.09     0.23   0.16   0.04
   7   6    -0.07   0.08   0.06     0.07  -0.12   0.26     0.16   0.27  -0.16
   8   6    -0.13  -0.06  -0.12    -0.13  -0.21   0.01     0.02   0.16  -0.18
   9   6    -0.14  -0.15  -0.09    -0.14   0.01  -0.26    -0.04  -0.23   0.22
  10   6    -0.04  -0.10   0.06     0.14   0.16   0.04    -0.25  -0.39   0.05
  11   1     0.01   0.16  -0.05    -0.03  -0.14   0.03    -0.02  -0.09   0.02
  12   1     0.02   0.01  -0.12     0.06   0.02   0.12     0.03   0.01   0.08
  13   1     0.00   0.05  -0.03    -0.03  -0.14   0.04    -0.02  -0.09   0.02
  14   1    -0.11   0.09  -0.03    -0.04   0.01  -0.06    -0.03   0.00  -0.04
  15   1    -0.06   0.02   0.14    -0.04   0.03  -0.06    -0.03   0.02  -0.03
  16   1     0.17  -0.04  -0.22    -0.12   0.06   0.16    -0.09   0.04   0.11
  17   1    -0.11  -0.20  -0.11     0.09   0.21   0.05     0.07   0.14   0.04
  18   1    -0.04  -0.04   0.05    -0.08   0.01  -0.03    -0.06  -0.01  -0.03
  19   1    -0.05  -0.02   0.13    -0.00  -0.03   0.04     0.00  -0.03   0.03
  20   1     0.03   0.05   0.05     0.05  -0.01   0.02     0.07  -0.05   0.04
  21   1     0.00   0.06   0.11     0.02   0.00   0.02     0.00  -0.02  -0.00
  22   1     0.14  -0.10  -0.15     0.11  -0.12  -0.16     0.12   0.05   0.03
  23   1     0.07   0.16  -0.12     0.09   0.16  -0.09     0.06   0.05   0.01
  24   1    -0.01   0.08   0.10     0.03  -0.01   0.10     0.07   0.11  -0.05
  25   1    -0.10   0.05  -0.03    -0.03  -0.04   0.05     0.06   0.10  -0.05
  26   1    -0.03  -0.05  -0.02    -0.07  -0.11   0.01     0.03   0.08  -0.06
  27   1    -0.03  -0.02  -0.06    -0.07  -0.11   0.00     0.02   0.08  -0.04
  28   1    -0.05  -0.06  -0.03    -0.04   0.00  -0.06    -0.03  -0.09   0.06
  29   1    -0.05  -0.06  -0.02    -0.04  -0.00  -0.07    -0.03  -0.09   0.06
  30   1     0.01  -0.01   0.02     0.09   0.11   0.01    -0.12  -0.17   0.02
  31   1    -0.02  -0.05   0.05     0.04  -0.05   0.12    -0.07  -0.03  -0.08
  32   1    -0.00  -0.01   0.01     0.09   0.11   0.01    -0.12  -0.18   0.01
                     16                     17                     18
                        a                      a                      a 
 Frequencies --   462.4661               517.0742               749.2426
 Red. masses --    99.0000                99.0000                99.0000
 Frc consts  --    99.0000                99.0000                99.0000
 IR Inten    --    99.0000                99.0000                99.0000
 Raman Activ --     0.0000                 0.0000                 0.0000
 Depolar     --     0.0000                 0.0000                 0.0000
 Atom AN      X      Y      Z        X      Y      Z        X      Y      Z
   1   6     0.08   0.13  -0.02    -0.05  -0.06  -0.01    -0.04  -0.03  -0.02
   2   6     0.17  -0.11   0.22    -0.03   0.03  -0.11    -0.09   0.02   0.06
   3   6    -0.32  -0.17   0.08     0.39   0.03  -0.08    -0.06   0.11   0.09
   4   6    -0.15   0.09  -0.21     0.17  -0.17   0.10     0.05   0.14   0.07
   5   6    -0.03   0.02  -0.12    -0.27   0.01  -0.13     0.07   0.11  -0.10
   6   6     0.13   0.34   0.04    -0.20   0.44   0.07     0.12   0.01  -0.11
   7   6     0.27   0.03   0.19     0.12   0.03   0.16     0.08  -0.07  -0.06
   8   6    -0.06  -0.12  -0.05    -0.01  -0.10   0.01     0.04  -0.07   0.03
   9   6    -0.13  -0.10  -0.10    -0.07  -0.05  -0.07    -0.01  -0.01  -0.02
  10   6    -0.03  -0.08   0.05    -0.01  -0.03   0.02    -0.00   0.00  -0.00
  11   1     0.04   0.10  -0.01    -0.04  -0.05  -0.00     0.08   0.03   0.03
  12   1    -0.06  -0.03  -0.09     0.02   0.01   0.04     0.03  -0.00  -0.00
  13   1     0.04   0.13  -0.03    -0.02  -0.05   0.02    -0.02  -0.11  -0.08
  14   1     0.15  -0.10   0.13    -0.11   0.09  -0.10     0.15  -0.07   0.13
  15   1     0.10   0.01  -0.08    -0.06  -0.04   0.11     0.02  -0.04  -0.19
  16   1    -0.10  -0.01  -0.03     0.15  -0.02  -0.03     0.15  -0.00  -0.10
  17   1    -0.09  -0.09   0.04     0.07   0.00  -0.05    -0.14  -0.12  -0.01
  18   1     0.09   0.07   0.01    -0.02  -0.11  -0.05    -0.10  -0.16  -0.22
  19   1    -0.07   0.11  -0.16     0.12  -0.15   0.09    -0.03  -0.12   0.30
  20   1     0.06  -0.11   0.04    -0.04  -0.11   0.08    -0.04  -0.14   0.27
  21   1    -0.08  -0.05  -0.12    -0.23  -0.03  -0.11    -0.13  -0.15  -0.27
  22   1     0.04   0.04  -0.06    -0.10   0.13   0.01    -0.10   0.14   0.10
  23   1     0.06   0.17  -0.01    -0.02   0.11   0.05    -0.00  -0.21   0.05
  24   1     0.08  -0.03  -0.05     0.02  -0.10  -0.11    -0.04   0.02   0.24
  25   1     0.16  -0.00   0.10     0.19  -0.01   0.13    -0.19   0.07  -0.15
  26   1    -0.04  -0.06  -0.01    -0.01  -0.06   0.01    -0.10   0.09  -0.08
  27   1    -0.05  -0.08   0.00    -0.03  -0.06  -0.01    -0.05  -0.04   0.19
  28   1    -0.05  -0.04  -0.02    -0.02  -0.01  -0.01     0.00   0.03   0.06
  29   1    -0.06  -0.04  -0.03    -0.03  -0.02  -0.02    -0.05   0.02  -0.03
  30   1     0.01   0.00   0.01     0.01   0.01   0.01     0.00   0.02  -0.01
  31   1    -0.00  -0.06   0.05    -0.00  -0.03   0.03     0.00  -0.01   0.01
  32   1     0.01   0.00   0.02     0.01   0.01   0.01     0.00   0.01   0.01
                     19                     20                     21
                        a                      a                      a 
 Frequencies --   771.6415               793.1920               855.8902
 Red. masses --    99.0000                99.0000                99.0000
 Frc consts  --    99.0000                99.0000                99.0000
 IR Inten    --    99.0000                99.0000                99.0000
 Raman Activ --     0.0000                 0.0000                 0.0000
 Depolar     --     0.0000                 0.0000                 0.0000
 Atom AN      X      Y      Z        X      Y      Z        X      Y      Z
   1   6     0.04   0.02   0.02    -0.05  -0.01  -0.02     0.05   0.14   0.01
   2   6     0.12  -0.04  -0.05    -0.14   0.07   0.03    -0.06   0.09  -0.17
   3   6     0.03  -0.10  -0.07     0.02   0.09   0.07    -0.16  -0.16   0.03
   4   6    -0.07  -0.08   0.01     0.07  -0.01  -0.02     0.06  -0.13   0.20
   5   6    -0.05   0.02   0.03    -0.05  -0.12  -0.03     0.14   0.04  -0.04
   6   6     0.02   0.07  -0.03    -0.10  -0.04   0.10     0.15   0.06  -0.17
   7   6     0.10  -0.04  -0.03    -0.08   0.07   0.07    -0.12   0.04  -0.05
   8   6     0.12  -0.10  -0.04     0.05   0.01  -0.08    -0.12   0.03   0.17
   9   6     0.07  -0.06  -0.06     0.15  -0.09  -0.05     0.07  -0.08  -0.08
  10   6     0.00  -0.01  -0.00     0.03  -0.02  -0.01     0.05  -0.05  -0.05
  11   1    -0.10  -0.04  -0.03     0.12   0.05   0.05     0.01  -0.02   0.01
  12   1    -0.05  -0.00  -0.00     0.09   0.02   0.01     0.07   0.09   0.07
  13   1     0.02   0.14   0.09    -0.03  -0.19  -0.11     0.00  -0.02   0.02
  14   1    -0.17   0.06  -0.14     0.19  -0.04   0.15    -0.00   0.03  -0.04
  15   1    -0.01   0.05   0.22     0.01  -0.07  -0.25    -0.01   0.04  -0.07
  16   1    -0.13  -0.00   0.09     0.14   0.00  -0.09    -0.10  -0.04   0.07
  17   1     0.11   0.13   0.00    -0.09  -0.13  -0.00    -0.01   0.05   0.01
  18   1     0.06   0.07   0.12    -0.01   0.01   0.01     0.13   0.00   0.12
  19   1    -0.06   0.09  -0.13     0.12  -0.05  -0.04    -0.05   0.06  -0.02
  20   1     0.02   0.00  -0.02    -0.01   0.07  -0.16     0.05  -0.06   0.08
  21   1    -0.07   0.06   0.05     0.14   0.03   0.11    -0.12   0.01  -0.05
  22   1    -0.04   0.07   0.04     0.09  -0.14  -0.10    -0.10   0.20   0.14
  23   1    -0.03  -0.06   0.01     0.04   0.19  -0.03     0.04  -0.25   0.08
  24   1    -0.06  -0.02   0.25    -0.01  -0.03  -0.13     0.04   0.04  -0.18
  25   1    -0.14   0.15  -0.14     0.14   0.02   0.10    -0.01  -0.21   0.08
  26   1    -0.27   0.16  -0.20    -0.15  -0.00  -0.09     0.08  -0.19   0.16
  27   1    -0.04   0.03   0.38     0.06   0.13   0.12     0.05   0.03  -0.19
  28   1     0.00   0.07   0.29    -0.02   0.03   0.34    -0.07  -0.08   0.17
  29   1    -0.24   0.10  -0.16    -0.24   0.15  -0.19    -0.04   0.18  -0.12
  30   1    -0.02   0.11  -0.05    -0.04   0.17  -0.08     0.00   0.24  -0.10
  31   1    -0.03   0.01   0.02    -0.05   0.05   0.01    -0.08   0.02   0.08
  32   1    -0.05  -0.04   0.10    -0.10  -0.10   0.15    -0.10  -0.10   0.17
                     22                     23                     24
                        a                      a                      a 
 Frequencies --   826.6568               871.2759              1505.3573
 Red. masses --    99.0000                99.0000                99.0000
 Frc consts  --    99.0000                99.0000                99.0000
 IR Inten    --    99.0000                99.0000                99.0000
 Raman Activ --     0.0000                 0.0000                 0.0000
 Depolar     --     0.0000                 0.0000                 0.0000
 Atom AN      X      Y      Z        X      Y      Z        X      Y      Z
   1   6     0.02  -0.09   0.00     0.04  -0.10  -0.12     0.02  -0.02   0.02
   2   6     0.15  -0.15   0.14     0.13  -0.01  -0.01     0.01  -0.01   0.02
   3   6     0.05   0.04  -0.08    -0.11   0.23   0.21     0.00   0.01   0.00
   4   6    -0.06   0.22  -0.20    -0.06   0.07   0.16     0.01  -0.01   0.01
   5   6     0.13   0.09   0.12    -0.13  -0.09  -0.27    -0.00  -0.00  -0.00
   6   6    -0.06  -0.06   0.08     0.13  -0.14  -0.06    -0.01   0.02  -0.00
   7   6    -0.17  -0.00  -0.02     0.12   0.07   0.11    -0.04   0.03  -0.11
   8   6    -0.06   0.04  -0.02    -0.01   0.05  -0.00    -0.01  -0.00   0.00
   9   6     0.12  -0.05  -0.00     0.01  -0.01  -0.03     0.00  -0.01  -0.08
  10   6     0.05   0.01  -0.02     0.00  -0.04   0.01     0.13  -0.10  -0.07
  11   1    -0.11  -0.02  -0.05    -0.22  -0.24  -0.09    -0.08   0.06  -0.05
  12   1    -0.14  -0.10  -0.08    -0.09   0.03   0.07    -0.01   0.03   0.05
  13   1     0.03   0.18   0.08     0.01   0.17   0.16     0.01  -0.01  -0.08
  14   1    -0.14  -0.03  -0.06    -0.20  -0.17  -0.08    -0.04   0.01  -0.02
  15   1     0.01   0.04   0.23     0.02   0.13   0.18     0.01  -0.00  -0.04
  16   1    -0.04   0.02   0.02     0.23   0.05  -0.20    -0.00  -0.01   0.01
  17   1     0.08   0.04   0.01    -0.32  -0.14  -0.07    -0.01  -0.01  -0.00
  18   1    -0.14  -0.11  -0.27    -0.03   0.02   0.03    -0.02  -0.02  -0.02
  19   1    -0.11  -0.06   0.23     0.12  -0.05   0.00    -0.02   0.03  -0.03
  20   1    -0.04  -0.07   0.24    -0.04   0.05  -0.18    -0.00  -0.00   0.01
  21   1     0.06  -0.16  -0.17     0.02   0.05   0.03     0.01   0.00   0.01
  22   1     0.05  -0.11  -0.07     0.00  -0.00   0.02     0.01  -0.03  -0.04
  23   1    -0.03   0.12  -0.05     0.10  -0.09   0.05    -0.01  -0.05   0.02
  24   1     0.01   0.00  -0.19     0.07   0.07   0.02    -0.05   0.05   0.28
  25   1     0.08  -0.10   0.09     0.03  -0.01   0.04     0.21  -0.14   0.15
  26   1     0.01  -0.08   0.04     0.02  -0.03   0.03    -0.01   0.03  -0.02
  27   1     0.05   0.08  -0.09     0.00   0.00  -0.05    -0.01  -0.02  -0.03
  28   1    -0.02  -0.02   0.18    -0.02  -0.03   0.02    -0.02   0.01   0.17
  29   1    -0.08   0.11  -0.09    -0.01   0.03  -0.02     0.12  -0.06   0.06
  30   1    -0.02   0.13  -0.07    -0.01   0.04  -0.02    -0.31  -0.23  -0.07
  31   1    -0.04   0.06  -0.00    -0.02   0.00   0.01    -0.45   0.32   0.25
  32   1    -0.08  -0.09   0.11    -0.03  -0.03   0.04     0.21   0.32   0.10
                     25                     26                     27
                        a                      a                      a 
 Frequencies --  1517.7827               960.2093              1508.1817
 Red. masses --    99.0000                99.0000                99.0000
 Frc consts  --    99.0000                99.0000                99.0000
 IR Inten    --    99.0000                99.0000                99.0000
 Raman Activ --     0.0000                 0.0000                 0.0000
 Depolar     --     0.0000                 0.0000                 0.0000
 Atom AN      X      Y      Z        X      Y      Z        X      Y      Z
   1   6     0.10   0.04  -0.14     0.01   0.03  -0.10    -0.01  -0.00   0.01
   2   6     0.01   0.02  -0.07    -0.01   0.04   0.01    -0.00   0.00   0.01
   3   6    -0.01  -0.00   0.02     0.07   0.03   0.11    -0.00  -0.00   0.00
   4   6     0.04   0.00   0.13    -0.01  -0.09  -0.21     0.00  -0.00  -0.00
   5   6     0.02  -0.01   0.02     0.05   0.02   0.19     0.01  -0.00   0.03
   6   6    -0.00   0.00   0.00    -0.11   0.17   0.12    -0.00   0.00   0.00
   7   6    -0.01  -0.01  -0.01     0.08  -0.17  -0.14    -0.01  -0.01  -0.01
   8   6    -0.01   0.01  -0.04    -0.14   0.01   0.02    -0.01   0.02  -0.05
   9   6     0.00   0.00   0.00    -0.03   0.02   0.08    -0.07  -0.01  -0.10
  10   6    -0.00  -0.01  -0.01     0.15  -0.00  -0.06    -0.13  -0.05  -0.14
  11   1     0.23   0.15   0.07    -0.07  -0.15  -0.02    -0.01  -0.02   0.00
  12   1    -0.50  -0.00   0.07     0.06   0.11   0.12     0.05  -0.01  -0.01
  13   1    -0.12  -0.34   0.45    -0.02  -0.04   0.05     0.01   0.04  -0.03
  14   1     0.06  -0.04   0.03    -0.02  -0.14   0.03    -0.01   0.00  -0.00
  15   1    -0.02   0.01   0.09     0.00  -0.01  -0.02     0.00  -0.00  -0.01
  16   1     0.01   0.00  -0.01     0.07   0.06  -0.10     0.00   0.00  -0.01
  17   1     0.01  -0.01   0.01     0.01  -0.17   0.07     0.00   0.01   0.00
  18   1    -0.16  -0.17  -0.23     0.03   0.02  -0.00     0.00   0.00   0.00
  19   1    -0.02   0.20  -0.28     0.03  -0.00  -0.12     0.00  -0.00   0.00
  20   1    -0.00   0.03  -0.03     0.13  -0.05   0.01     0.00   0.04  -0.06
  21   1    -0.04  -0.01  -0.02     0.01   0.00   0.05    -0.04  -0.04  -0.05
  22   1     0.00  -0.00  -0.00     0.03  -0.01  -0.02     0.00  -0.00  -0.00
  23   1    -0.00  -0.00   0.00    -0.17   0.11  -0.08     0.00  -0.00   0.00
  24   1     0.00   0.01   0.01    -0.06  -0.05   0.19     0.00   0.01   0.01
  25   1     0.02   0.01   0.01    -0.13   0.09  -0.16     0.01   0.00   0.00
  26   1     0.08  -0.05   0.05     0.18   0.13   0.05     0.09  -0.07   0.07
  27   1    -0.02   0.01   0.11    -0.14  -0.19  -0.10    -0.01   0.03   0.14
  28   1     0.00  -0.00  -0.02    -0.15  -0.23  -0.03    -0.01   0.06   0.17
  29   1    -0.02   0.01  -0.01     0.17   0.16   0.04     0.15  -0.06   0.08
  30   1     0.01  -0.01   0.01    -0.02   0.20  -0.11     0.52  -0.15   0.28
  31   1    -0.02   0.02  -0.00    -0.06   0.13  -0.03     0.02   0.17  -0.26
  32   1     0.01   0.02   0.03    -0.12  -0.17   0.16    -0.02   0.19   0.56
                     28                     29                     30
                        a                      a                      a 
 Frequencies --   903.4419              1507.2745              1505.8390
 Red. masses --    99.0000                99.0000                99.0000
 Frc consts  --    99.0000                99.0000                99.0000
 IR Inten    --    99.0000                99.0000                99.0000
 Raman Activ --     0.0000                 0.0000                 0.0000
 Depolar     --     0.0000                 0.0000                 0.0000
 Atom AN      X      Y      Z        X      Y      Z        X      Y      Z
   1   6    -0.13  -0.26   0.03    -0.13   0.09  -0.04    -0.04   0.03  -0.04
   2   6     0.07  -0.09   0.29    -0.06   0.03  -0.09    -0.01   0.02  -0.01
   3   6     0.22   0.26  -0.17    -0.05  -0.03   0.02     0.00  -0.01  -0.00
   4   6    -0.18   0.05  -0.07     0.02  -0.01  -0.01    -0.02   0.01  -0.04
   5   6    -0.09  -0.06   0.05     0.03  -0.00   0.11    -0.01   0.01  -0.02
   6   6     0.12   0.07  -0.13    -0.01   0.04   0.01     0.01  -0.05  -0.00
   7   6     0.08   0.05  -0.06    -0.02   0.01  -0.06     0.06  -0.04   0.19
   8   6    -0.00   0.02   0.19    -0.01  -0.02  -0.01     0.02   0.01   0.03
   9   6    -0.05  -0.03  -0.10     0.00   0.01  -0.00     0.04  -0.04   0.06
  10   6    -0.02  -0.10  -0.04     0.01  -0.00   0.01     0.07  -0.06  -0.07
  11   1     0.10   0.16   0.02     0.31  -0.37   0.23     0.16  -0.10   0.10
  12   1    -0.10  -0.22  -0.20     0.23  -0.18  -0.31     0.01  -0.06  -0.09
  13   1    -0.01  -0.05  -0.12    -0.01   0.18   0.24    -0.02   0.02   0.16
  14   1     0.09   0.08   0.09     0.18  -0.06   0.11     0.00  -0.01   0.00
  15   1     0.00  -0.11   0.04    -0.06   0.00   0.20    -0.01  -0.01   0.00
  16   1     0.03   0.10  -0.07     0.09   0.00  -0.10    -0.01   0.01  -0.00
  17   1     0.06   0.07  -0.04     0.09   0.10   0.03    -0.00  -0.00  -0.00
  18   1    -0.18   0.13   0.08    -0.01   0.02   0.03     0.06   0.06   0.08
  19   1     0.03   0.02  -0.10    -0.03  -0.00   0.04     0.04  -0.09   0.09
  20   1     0.03   0.04  -0.13     0.01   0.16  -0.24     0.01  -0.03   0.04
  21   1    -0.03   0.10   0.14    -0.16  -0.14  -0.20     0.03   0.02   0.03
  22   1     0.01   0.15   0.13     0.04  -0.05  -0.06    -0.03   0.06   0.07
  23   1    -0.03  -0.17   0.02    -0.00  -0.08   0.04     0.01   0.08  -0.03
  24   1     0.03   0.05   0.03    -0.03   0.03   0.16     0.09  -0.08  -0.46
  25   1    -0.08  -0.07  -0.03     0.11  -0.08   0.08    -0.34   0.21  -0.24
  26   1     0.08  -0.05   0.10     0.01   0.01   0.00    -0.03   0.02  -0.02
  27   1     0.01  -0.03  -0.06     0.02   0.03   0.01    -0.01  -0.03  -0.04
  28   1    -0.05  -0.04   0.01    -0.01  -0.01   0.01     0.03  -0.04  -0.18
  29   1     0.03   0.10  -0.05     0.00  -0.01   0.01    -0.14   0.10  -0.10
  30   1     0.04   0.15  -0.05    -0.05   0.01  -0.03    -0.11  -0.18   0.01
  31   1    -0.05  -0.09   0.13    -0.02  -0.00   0.03    -0.27   0.22   0.12
  32   1    -0.01  -0.01   0.08     0.01  -0.00  -0.05     0.12   0.22   0.16
                     31                     32                     33
                        a                      a                      a 
 Frequencies --  1019.0520               948.7988              1487.7034
 Red. masses --    99.0000                99.0000                99.0000
 Frc consts  --    99.0000                99.0000                99.0000
 IR Inten    --    99.0000                99.0000                99.0000
 Raman Activ --     0.0000                 0.0000                 0.0000
 Depolar     --     0.0000                 0.0000                 0.0000
 Atom AN      X      Y      Z        X      Y      Z        X      Y      Z
   1   6     0.16   0.15   0.17    -0.06  -0.14  -0.03    -0.06   0.01   0.04
   2   6    -0.15  -0.16  -0.15     0.04   0.02   0.10    -0.01   0.00  -0.02
   3   6    -0.04  -0.11  -0.02     0.01   0.17  -0.01     0.17   0.08  -0.05
   4   6     0.05   0.23  -0.01    -0.05  -0.08   0.05     0.05   0.01   0.15
   5   6    -0.12  -0.20  -0.03     0.18  -0.02   0.03     0.01  -0.00   0.02
   6   6     0.09   0.15  -0.02     0.09   0.18  -0.05    -0.02   0.05   0.01
   7   6    -0.00   0.10  -0.17    -0.18  -0.10  -0.02     0.01  -0.00   0.04
   8   6    -0.08  -0.23   0.13    -0.19  -0.20  -0.19     0.02  -0.00   0.04
   9   6    -0.04  -0.06   0.08     0.12  -0.02   0.20    -0.01  -0.00  -0.01
  10   6     0.10   0.12  -0.04     0.16   0.28   0.05     0.00  -0.00  -0.00
  11   1     0.03   0.12   0.02    -0.01  -0.00  -0.01    -0.03  -0.13   0.02
  12   1    -0.05  -0.03  -0.04    -0.04  -0.07  -0.05     0.22  -0.04  -0.09
  13   1     0.06   0.17   0.05    -0.01  -0.01  -0.02     0.03   0.13  -0.12
  14   1    -0.02  -0.02  -0.03     0.01  -0.00   0.03     0.06   0.00   0.04
  15   1    -0.01   0.06  -0.06     0.01   0.00   0.02    -0.01   0.01   0.07
  16   1     0.11  -0.25   0.20     0.02   0.10  -0.10    -0.33   0.01   0.33
  17   1    -0.01   0.05  -0.02    -0.05  -0.00  -0.02    -0.31  -0.32  -0.11
  18   1    -0.21  -0.01  -0.13    -0.02   0.08   0.12    -0.18  -0.21  -0.28
  19   1     0.13  -0.12   0.14     0.02   0.03  -0.10     0.01   0.21  -0.31
  20   1    -0.07   0.11  -0.19     0.16  -0.09  -0.01     0.01   0.01  -0.02
  21   1     0.15   0.03   0.13    -0.08   0.04   0.02    -0.03  -0.00  -0.01
  22   1     0.22   0.11   0.14    -0.08   0.12   0.04     0.05  -0.09  -0.09
  23   1     0.02  -0.01   0.02     0.06  -0.06   0.06    -0.01  -0.12   0.05
  24   1    -0.06  -0.05  -0.02    -0.04  -0.06  -0.10     0.02  -0.02  -0.10
  25   1     0.00   0.04  -0.05    -0.01  -0.09   0.04    -0.07   0.06  -0.05
  26   1    -0.02  -0.05   0.03    -0.16  -0.13  -0.07    -0.08   0.05  -0.05
  27   1    -0.08  -0.14   0.05    -0.03  -0.01  -0.01     0.01  -0.03  -0.10
  28   1    -0.05  -0.08   0.00     0.02  -0.01   0.07    -0.00   0.01   0.03
  29   1     0.03  -0.01   0.04    -0.09  -0.16   0.06     0.02  -0.01   0.01
  30   1    -0.03   0.02  -0.03    -0.11  -0.20   0.03    -0.00  -0.00  -0.00
  31   1     0.01   0.12  -0.09     0.08   0.31  -0.33    -0.01   0.01   0.00
  32   1    -0.03  -0.04   0.01    -0.05  -0.08  -0.08     0.00   0.01   0.00
                     34                     35                     36
                        a                      a                      a 
 Frequencies --  1215.8258              1492.1737               931.0243
 Red. masses --    99.0000                99.0000                99.0000
 Frc consts  --    99.0000                99.0000                99.0000
 IR Inten    --    99.0000                99.0000                99.0000
 Raman Activ --     0.0000                 0.0000                 0.0000
 Depolar     --     0.0000                 0.0000                 0.0000
 Atom AN      X      Y      Z        X      Y      Z        X      Y      Z
   1   6    -0.05   0.00   0.09     0.02  -0.02   0.05    -0.02   0.02   0.08
   2   6     0.07  -0.01  -0.15     0.02  -0.01   0.07    -0.00  -0.03  -0.01
   3   6    -0.03   0.00   0.10    -0.14  -0.07   0.05     0.04  -0.09  -0.10
   4   6     0.05   0.03  -0.07     0.03  -0.01   0.12    -0.03   0.04   0.08
   5   6     0.02  -0.11   0.06     0.03  -0.00   0.07    -0.25   0.11  -0.16
   6   6    -0.02   0.05  -0.01    -0.02   0.08   0.02     0.02  -0.27  -0.02
   7   6     0.08  -0.11  -0.11     0.03  -0.01   0.07     0.28  -0.02   0.28
   8   6    -0.21   0.11   0.15     0.05  -0.02   0.11    -0.16   0.13  -0.22
   9   6     0.24  -0.19  -0.18    -0.02  -0.01  -0.02     0.08   0.04   0.09
  10   6    -0.17   0.14   0.13    -0.00  -0.00  -0.00     0.15   0.04   0.05
  11   1     0.06   0.10   0.03    -0.12   0.03  -0.06     0.10   0.13   0.04
  12   1     0.01  -0.04  -0.05     0.04   0.02   0.03     0.01  -0.05  -0.07
  13   1    -0.00  -0.02  -0.06     0.03   0.01  -0.14     0.00  -0.04  -0.07
  14   1    -0.06  -0.03  -0.08    -0.15   0.03  -0.09     0.05   0.14  -0.01
  15   1    -0.00  -0.00   0.04     0.03  -0.03  -0.17    -0.01  -0.06  -0.01
  16   1    -0.03   0.10  -0.09     0.28  -0.01  -0.28    -0.06  -0.05   0.10
  17   1     0.03  -0.14   0.09     0.27   0.27   0.10     0.07   0.12  -0.03
  18   1    -0.01   0.00  -0.03    -0.14  -0.14  -0.18     0.01  -0.02  -0.01
  19   1    -0.10   0.04   0.07     0.00   0.15  -0.23    -0.04   0.01   0.05
  20   1    -0.11   0.07  -0.00    -0.01   0.11  -0.14    -0.16   0.07  -0.00
  21   1    -0.04   0.05   0.09    -0.08  -0.09  -0.12    -0.10   0.02  -0.06
  22   1    -0.14  -0.00  -0.06     0.08  -0.13  -0.13    -0.10  -0.11  -0.08
  23   1     0.22   0.04   0.11    -0.02  -0.18   0.08     0.04  -0.04  -0.00
  24   1    -0.06  -0.10   0.08     0.03  -0.03  -0.18     0.13   0.14   0.18
  25   1     0.07   0.23  -0.10    -0.13   0.09  -0.09    -0.01   0.06   0.01
  26   1     0.17   0.04   0.12    -0.20   0.13  -0.13     0.06  -0.00  -0.00
  27   1    -0.04  -0.04  -0.16     0.04  -0.05  -0.25    -0.09  -0.07  -0.16
  28   1    -0.01  -0.06   0.21    -0.01   0.01   0.06    -0.10  -0.16   0.04
  29   1    -0.06   0.16  -0.17     0.05  -0.03   0.03     0.03   0.03   0.02
  30   1    -0.01  -0.23   0.13     0.00   0.00   0.00    -0.09   0.01  -0.05
  31   1     0.08  -0.04  -0.06    -0.00   0.01  -0.01    -0.01   0.23  -0.18
  32   1     0.08   0.13  -0.18     0.00   0.01   0.00    -0.13  -0.20   0.10
                     37                     38                     39
                        a                      a                      a 
 Frequencies --  1044.5681              1497.6135              1498.8532
 Red. masses --    99.0000                99.0000                99.0000
 Frc consts  --    99.0000                99.0000                99.0000
 IR Inten    --    99.0000                99.0000                99.0000
 Raman Activ --     0.0000                 0.0000                 0.0000
 Depolar     --     0.0000                 0.0000                 0.0000
 Atom AN      X      Y      Z        X      Y      Z        X      Y      Z
   1   6     0.09  -0.20  -0.00    -0.05   0.03   0.04    -0.03   0.01   0.03
   2   6    -0.17   0.19   0.01     0.00   0.00   0.05    -0.00   0.00   0.02
   3   6    -0.11   0.01  -0.10    -0.05  -0.03   0.02    -0.04  -0.02   0.02
   4   6     0.33  -0.13  -0.13     0.01   0.01   0.10     0.01  -0.00   0.07
   5   6    -0.08   0.01   0.24    -0.01  -0.01  -0.08    -0.01  -0.01  -0.10
   6   6    -0.10  -0.00  -0.11     0.02  -0.08  -0.01    -0.00   0.01  -0.01
   7   6     0.12   0.04   0.12     0.00  -0.03   0.04    -0.03   0.02  -0.09
   8   6     0.01   0.08  -0.00    -0.06   0.05  -0.16    -0.02  -0.02   0.00
   9   6     0.02   0.03  -0.09    -0.02   0.03  -0.08     0.08  -0.05   0.19
  10   6    -0.01  -0.03   0.08     0.03  -0.00   0.03    -0.02   0.01  -0.05
  11   1    -0.11  -0.01  -0.07     0.01  -0.17   0.04    -0.02  -0.09   0.01
  12   1    -0.20  -0.16  -0.12     0.20  -0.06  -0.12     0.12  -0.03  -0.06
  13   1     0.06   0.25   0.07     0.03   0.11  -0.07     0.02   0.07  -0.07
  14   1     0.07  -0.11   0.10    -0.08   0.03  -0.05    -0.02   0.02  -0.02
  15   1     0.09   0.35  -0.20     0.02  -0.03  -0.10     0.00  -0.01  -0.04
  16   1    -0.07   0.01  -0.00     0.11  -0.00  -0.11     0.09  -0.01  -0.08
  17   1     0.13  -0.13   0.11     0.11   0.11   0.05     0.08   0.08   0.03
  18   1     0.03  -0.04  -0.05    -0.10  -0.14  -0.17    -0.08  -0.10  -0.13
  19   1     0.13  -0.07  -0.02     0.02   0.12  -0.20    -0.01   0.11  -0.15
  20   1    -0.08   0.06   0.05    -0.02  -0.10   0.17    -0.02  -0.12   0.20
  21   1    -0.05   0.05   0.11     0.09   0.10   0.14     0.12   0.12   0.17
  22   1    -0.04   0.05   0.03    -0.08   0.13   0.13     0.00  -0.01  -0.02
  23   1    -0.17  -0.08  -0.07     0.01   0.18  -0.08    -0.01  -0.03   0.00
  24   1     0.05   0.07   0.07     0.02  -0.01  -0.10    -0.04   0.04   0.21
  25   1    -0.06  -0.07   0.02    -0.06   0.06  -0.06     0.17  -0.10   0.12
  26   1    -0.05  -0.10   0.02     0.29  -0.21   0.20     0.02   0.01   0.01
  27   1     0.02   0.04  -0.03    -0.07   0.06   0.39    -0.00  -0.00   0.01
  28   1     0.01   0.03   0.01    -0.03   0.02   0.19     0.07  -0.08  -0.49
  29   1    -0.06  -0.04  -0.04     0.14  -0.10   0.09    -0.38   0.24  -0.24
  30   1    -0.03  -0.08   0.03    -0.12   0.03  -0.07     0.12  -0.08   0.08
  31   1     0.01   0.02  -0.04    -0.02  -0.03   0.06    -0.01   0.04  -0.03
  32   1    -0.01  -0.03  -0.01     0.01  -0.03  -0.12    -0.01   0.04   0.16
                     40                     41                     42
                        a                      a                      a 
 Frequencies --  1490.1503              1501.3492              1156.6626
 Red. masses --    99.0000                99.0000                99.0000
 Frc consts  --    99.0000                99.0000                99.0000
 IR Inten    --    99.0000                99.0000                99.0000
 Raman Activ --     0.0000                 0.0000                 0.0000
 Depolar     --     0.0000                 0.0000                 0.0000
 Atom AN      X      Y      Z        X      Y      Z        X      Y      Z
   1   6    -0.00  -0.01   0.02    -0.05   0.02  -0.07    -0.02   0.13   0.09
   2   6     0.00  -0.00   0.01     0.09   0.03   0.21     0.04  -0.25  -0.00
   3   6     0.00   0.01  -0.00     0.06   0.02  -0.00    -0.22   0.18  -0.11
   4   6     0.02   0.00   0.06    -0.00  -0.01  -0.02     0.30  -0.09  -0.17
   5   6     0.03  -0.02   0.09    -0.02   0.00   0.00    -0.23   0.12   0.18
   6   6     0.05  -0.23  -0.03     0.01   0.01  -0.01     0.25   0.03   0.05
   7   6     0.00  -0.00  -0.03    -0.01   0.01  -0.03    -0.16  -0.16   0.07
   8   6     0.03  -0.01   0.07     0.01  -0.01   0.03     0.04   0.05  -0.15
   9   6    -0.00  -0.01   0.02    -0.01   0.00  -0.01    -0.00   0.04   0.05
  10   6    -0.00   0.00  -0.01    -0.01   0.01   0.01    -0.01  -0.03  -0.03
  11   1    -0.05   0.02  -0.02     0.26  -0.11   0.14     0.08   0.07   0.05
  12   1     0.04   0.02   0.02    -0.01  -0.07  -0.10     0.06   0.03   0.01
  13   1     0.01   0.02  -0.06    -0.04   0.04   0.28    -0.01  -0.06  -0.02
  14   1    -0.01   0.00  -0.00    -0.49   0.09  -0.29    -0.10  -0.10  -0.05
  15   1     0.00   0.00  -0.01     0.11  -0.10  -0.55    -0.04  -0.14   0.08
  16   1    -0.01  -0.00   0.01    -0.08  -0.00   0.10    -0.10   0.14  -0.13
  17   1    -0.01  -0.01  -0.00    -0.09  -0.09  -0.03    -0.11   0.08  -0.08
  18   1    -0.05  -0.08  -0.09     0.02   0.03   0.03     0.16  -0.09  -0.11
  19   1    -0.02   0.08  -0.10    -0.02  -0.01   0.04     0.17  -0.08  -0.06
  20   1     0.01   0.12  -0.20     0.01  -0.01   0.00    -0.19   0.11   0.08
  21   1    -0.11  -0.12  -0.16     0.06  -0.02  -0.00    -0.12   0.09   0.10
  22   1    -0.24   0.36   0.38    -0.02  -0.00  -0.01     0.14   0.07   0.11
  23   1     0.04   0.53  -0.23     0.00  -0.01   0.00     0.13  -0.04   0.08
  24   1    -0.02  -0.00   0.08    -0.02   0.01   0.09    -0.08  -0.13  -0.02
  25   1     0.05  -0.04   0.04     0.06  -0.04   0.05    -0.01  -0.10   0.05
  26   1    -0.15   0.08  -0.10    -0.06   0.04  -0.04     0.01   0.10  -0.07
  27   1     0.04  -0.02  -0.19     0.01  -0.01  -0.08     0.01   0.02  -0.00
  28   1     0.01  -0.00  -0.05    -0.00   0.01   0.03    -0.00  -0.01  -0.03
  29   1    -0.03   0.03  -0.02     0.02  -0.02   0.02     0.04   0.02   0.03
  30   1     0.02  -0.01   0.01     0.03   0.03   0.01     0.02   0.04  -0.02
  31   1    -0.00   0.01  -0.01     0.04  -0.03  -0.03    -0.01  -0.02   0.03
  32   1    -0.00   0.01   0.03    -0.02  -0.03  -0.01    -0.00   0.00   0.02
                     43                     44                     45
                        a                      a                      a 
 Frequencies --  1085.1678              1503.1720              1010.3258
 Red. masses --    99.0000                99.0000                99.0000
 Frc consts  --    99.0000                99.0000                99.0000
 IR Inten    --    99.0000                99.0000                99.0000
 Raman Activ --     0.0000                 0.0000                 0.0000
 Depolar     --     0.0000                 0.0000                 0.0000
 Atom AN      X      Y      Z        X      Y      Z        X      Y      Z
   1   6     0.03   0.02   0.15     0.03  -0.05   0.03     0.03   0.21  -0.10
   2   6    -0.02  -0.06  -0.18     0.03  -0.01   0.07    -0.00  -0.10   0.03
   3   6    -0.02   0.05   0.14     0.03   0.02  -0.01     0.23  -0.10   0.06
   4   6    -0.03  -0.09  -0.09     0.02  -0.00  -0.01    -0.18   0.09  -0.28
   5   6    -0.07   0.16   0.01     0.04  -0.00   0.18    -0.20   0.06   0.17
   6   6     0.02  -0.00   0.20    -0.01   0.04   0.01     0.09  -0.06  -0.12
   7   6     0.09  -0.11  -0.10    -0.00  -0.01   0.01     0.10   0.09   0.07
   8   6    -0.13   0.02   0.01    -0.06   0.00  -0.13    -0.04  -0.01   0.03
   9   6     0.07  -0.20   0.16     0.05   0.01   0.08     0.05  -0.04  -0.05
  10   6    -0.07   0.13  -0.16     0.03   0.00   0.00    -0.02   0.05   0.06
  11   1     0.07   0.15   0.03    -0.13   0.12  -0.09    -0.03  -0.17   0.01
  12   1    -0.05  -0.09  -0.09     0.00   0.07   0.10     0.17   0.23   0.21
  13   1     0.03   0.07  -0.03     0.02   0.00  -0.14    -0.03  -0.13   0.05
  14   1    -0.02   0.11  -0.09    -0.14   0.02  -0.08    -0.03  -0.17   0.03
  15   1    -0.02  -0.01   0.01     0.04  -0.02  -0.16    -0.04  -0.17   0.01
  16   1     0.18  -0.11   0.03    -0.06   0.00   0.06     0.04   0.01  -0.02
  17   1    -0.18   0.05  -0.09    -0.06  -0.05  -0.02     0.15  -0.16   0.11
  18   1     0.08  -0.03  -0.01     0.00   0.01   0.01    -0.12   0.03  -0.07
  19   1     0.18  -0.08  -0.14     0.00  -0.01   0.02    -0.07   0.01  -0.04
  20   1     0.19  -0.13   0.01     0.02   0.23  -0.35    -0.08   0.06   0.01
  21   1    -0.09   0.01  -0.05    -0.22  -0.21  -0.30    -0.04   0.04   0.08
  22   1     0.01  -0.09  -0.05     0.04  -0.05  -0.05     0.05   0.08   0.09
  23   1    -0.21   0.08  -0.11     0.01  -0.07   0.04    -0.12  -0.15  -0.05
  24   1     0.16   0.25   0.10     0.01   0.00  -0.04     0.12   0.15  -0.00
  25   1    -0.18  -0.12  -0.08    -0.03   0.03  -0.03    -0.09  -0.16   0.04
  26   1    -0.00  -0.09   0.05     0.27  -0.16   0.18    -0.12  -0.21   0.04
  27   1     0.11   0.17  -0.10    -0.02   0.11   0.36     0.07   0.09  -0.03
  28   1     0.08   0.07   0.11     0.01  -0.07  -0.24     0.06   0.08   0.05
  29   1    -0.06  -0.05   0.01    -0.19   0.10  -0.11    -0.13  -0.10  -0.04
  30   1     0.07   0.05  -0.01    -0.08  -0.03  -0.03    -0.03  -0.13   0.05
  31   1     0.01  -0.08   0.06    -0.05   0.01   0.06     0.04   0.03  -0.07
  32   1     0.09   0.16  -0.08     0.01   0.00  -0.03     0.02   0.02  -0.07
                     46                     47                     48
                        a                      a                      a 
 Frequencies --  1157.9053              1092.2254              1147.3806
 Red. masses --    99.0000                99.0000                99.0000
 Frc consts  --    99.0000                99.0000                99.0000
 IR Inten    --    99.0000                99.0000                99.0000
 Raman Activ --     0.0000                 0.0000                 0.0000
 Depolar     --     0.0000                 0.0000                 0.0000
 Atom AN      X      Y      Z        X      Y      Z        X      Y      Z
   1   6     0.07   0.07  -0.06     0.09   0.01  -0.03     0.15   0.02   0.14
   2   6    -0.13  -0.12   0.21    -0.14  -0.02   0.08    -0.23  -0.09  -0.11
   3   6    -0.01   0.07  -0.32     0.10  -0.01  -0.12     0.20   0.13   0.01
   4   6     0.12   0.02   0.30    -0.02   0.01   0.02    -0.15  -0.16   0.03
   5   6    -0.03  -0.10  -0.27    -0.03   0.04  -0.01    -0.09   0.25  -0.10
   6   6    -0.02   0.19   0.21     0.08  -0.08  -0.04     0.13  -0.16   0.19
   7   6     0.09  -0.22  -0.09    -0.04  -0.00   0.07    -0.11   0.04  -0.17
   8   6    -0.11   0.10  -0.01    -0.00  -0.02  -0.09     0.19   0.03   0.24
   9   6     0.09  -0.03  -0.03    -0.07  -0.30   0.34    -0.17  -0.04  -0.23
  10   6    -0.05   0.01   0.02    -0.02   0.20  -0.33     0.09   0.03   0.10
  11   1    -0.06  -0.10  -0.02    -0.07  -0.07  -0.03    -0.01   0.08  -0.00
  12   1     0.02   0.08   0.08    -0.03   0.03   0.04    -0.07  -0.07  -0.05
  13   1     0.01   0.02   0.07     0.03   0.09   0.07     0.07   0.18   0.06
  14   1     0.01  -0.23   0.13     0.03  -0.18   0.10     0.00  -0.16   0.04
  15   1    -0.01  -0.03  -0.05     0.02   0.06  -0.12    -0.04  -0.04  -0.13
  16   1    -0.19   0.11  -0.02    -0.04   0.02   0.01     0.05   0.08  -0.08
  17   1     0.10   0.13  -0.04     0.18  -0.09   0.09     0.04  -0.07   0.02
  18   1    -0.00   0.00   0.06    -0.16   0.08   0.06     0.11   0.01   0.09
  19   1    -0.07   0.05   0.12    -0.03   0.02   0.01    -0.12   0.09  -0.11
  20   1    -0.01   0.01  -0.10    -0.03   0.00   0.03    -0.02  -0.03   0.10
  21   1     0.17  -0.06  -0.06    -0.18   0.09   0.04    -0.11   0.00  -0.12
  22   1     0.13  -0.02   0.01    -0.18  -0.02  -0.07     0.12  -0.10  -0.00
  23   1    -0.06   0.13  -0.02     0.22  -0.03   0.10     0.12   0.08   0.04
  24   1     0.04   0.05   0.12     0.01   0.00  -0.04    -0.02  -0.01  -0.08
  25   1    -0.21  -0.15  -0.09     0.13   0.12   0.04     0.02  -0.00  -0.02
  26   1     0.02  -0.06   0.05     0.08   0.16  -0.05     0.05   0.04   0.05
  27   1     0.05   0.09  -0.11     0.04   0.06   0.01     0.03  -0.02   0.08
  28   1     0.04   0.05   0.06    -0.01  -0.08   0.06    -0.10  -0.09  -0.05
  29   1    -0.06  -0.00  -0.04     0.03  -0.05   0.10    -0.09  -0.09  -0.05
  30   1     0.01  -0.05   0.03     0.11   0.21  -0.09    -0.08  -0.09   0.01
  31   1     0.01  -0.02   0.00    -0.01  -0.08   0.10     0.02   0.12  -0.12
  32   1     0.03   0.04  -0.04     0.09   0.19  -0.06    -0.06  -0.11   0.01
                     49                     50                     51
                        a                      a                      a 
 Frequencies --  1233.0164              1113.5083              1065.4655
 Red. masses --    99.0000                99.0000                99.0000
 Frc consts  --    99.0000                99.0000                99.0000
 IR Inten    --    99.0000                99.0000                99.0000
 Raman Activ --     0.0000                 0.0000                 0.0000
 Depolar     --     0.0000                 0.0000                 0.0000
 Atom AN      X      Y      Z        X      Y      Z        X      Y      Z
   1   6    -0.13   0.03   0.15     0.06  -0.01   0.01     0.14   0.16   0.14
   2   6     0.15  -0.02  -0.21    -0.09   0.01   0.00    -0.15  -0.22  -0.08
   3   6    -0.05  -0.02   0.07     0.08   0.00  -0.03     0.06   0.04  -0.00
   4   6     0.12   0.09   0.03    -0.05  -0.03  -0.01    -0.11   0.08  -0.02
   5   6    -0.00  -0.16  -0.05    -0.09   0.13  -0.05     0.18  -0.09   0.04
   6   6    -0.04   0.10   0.09     0.14  -0.06   0.12    -0.06   0.07  -0.08
   7   6     0.02  -0.06  -0.09    -0.07   0.03  -0.16    -0.08  -0.23   0.20
   8   6     0.05  -0.08   0.04    -0.28  -0.32  -0.11     0.09   0.27  -0.20
   9   6    -0.19   0.09   0.03     0.28   0.34   0.08     0.04   0.17  -0.15
  10   6     0.16  -0.09  -0.04    -0.08  -0.22   0.11    -0.05  -0.17   0.13
  11   1     0.11   0.16   0.07    -0.03  -0.01  -0.02     0.02   0.07   0.02
  12   1     0.03  -0.06  -0.07    -0.03  -0.01  -0.01    -0.01   0.02   0.01
  13   1    -0.02  -0.08  -0.12     0.02   0.07   0.03     0.05   0.12   0.06
  14   1    -0.14  -0.17  -0.11     0.02  -0.06   0.04    -0.03  -0.12  -0.00
  15   1     0.03   0.11   0.07     0.01   0.03  -0.08    -0.03  -0.05  -0.05
  16   1    -0.11   0.16  -0.13     0.02  -0.01   0.01     0.15  -0.15   0.09
  17   1     0.13  -0.24   0.17     0.07  -0.05   0.04    -0.02   0.00  -0.02
  18   1    -0.10   0.03  -0.01    -0.03   0.03   0.04    -0.27   0.11   0.05
  19   1    -0.14   0.06   0.14    -0.00   0.01  -0.04     0.12  -0.06  -0.03
  20   1    -0.01   0.00  -0.06     0.01  -0.01   0.02     0.23  -0.13  -0.04
  21   1    -0.05   0.07   0.10    -0.16   0.07  -0.01    -0.11   0.06   0.06
  22   1    -0.18  -0.03  -0.10     0.01  -0.05  -0.03    -0.27   0.02  -0.08
  23   1     0.09   0.08   0.05     0.13   0.05   0.05     0.04  -0.04   0.04
  24   1     0.15   0.22  -0.00     0.06   0.12  -0.07    -0.06  -0.12   0.05
  25   1    -0.10  -0.08  -0.05     0.06   0.12  -0.05    -0.04  -0.09   0.06
  26   1    -0.05  -0.04  -0.01    -0.10  -0.09  -0.04     0.03   0.09  -0.06
  27   1     0.12   0.14   0.04    -0.10  -0.12  -0.02     0.03   0.08  -0.06
  28   1     0.08   0.15  -0.13     0.19   0.25  -0.00     0.00   0.03  -0.04
  29   1    -0.02  -0.15   0.08     0.20   0.26   0.02    -0.00   0.03  -0.04
  30   1    -0.02   0.12  -0.08     0.03  -0.00   0.04    -0.02  -0.06   0.04
  31   1    -0.05   0.07   0.00    -0.03  -0.12   0.12    -0.01  -0.04   0.02
  32   1    -0.07  -0.12   0.12     0.01  -0.01   0.06    -0.03  -0.06   0.04
                     52                     53                     54
                        a                      a                      a 
 Frequencies --  1139.0988              1176.6368              1254.3368
 Red. masses --    99.0000                99.0000                99.0000
 Frc consts  --    99.0000                99.0000                99.0000
 IR Inten    --    99.0000                99.0000                99.0000
 Raman Activ --     0.0000                 0.0000                 0.0000
 Depolar     --     0.0000                 0.0000                 0.0000
 Atom AN      X      Y      Z        X      Y      Z        X      Y      Z
   1   6    -0.07  -0.16  -0.13    -0.09   0.04  -0.16     0.22  -0.06  -0.10
   2   6     0.09   0.31   0.00     0.12  -0.02   0.23    -0.16   0.02   0.07
   3   6     0.10  -0.24   0.14    -0.21  -0.06  -0.17    -0.01   0.02   0.08
   4   6    -0.12   0.12  -0.03     0.18   0.07  -0.01     0.04   0.04  -0.12
   5   6    -0.23   0.04  -0.07    -0.03   0.10   0.01     0.00  -0.17   0.12
   6   6     0.30   0.11   0.21     0.03  -0.12   0.13    -0.02   0.11  -0.02
   7   6    -0.17  -0.32  -0.01    -0.03   0.05  -0.20     0.03  -0.10  -0.07
   8   6     0.05   0.16  -0.11     0.07  -0.04   0.24    -0.06  -0.04   0.08
   9   6    -0.01   0.01  -0.05    -0.08  -0.04  -0.17    -0.10   0.00  -0.03
  10   6    -0.01  -0.02   0.01     0.05   0.03   0.09     0.09  -0.04   0.01
  11   1    -0.05  -0.07  -0.04    -0.01  -0.13  -0.01    -0.13  -0.12  -0.08
  12   1    -0.04  -0.03  -0.02     0.07   0.10   0.09    -0.07   0.02   0.04
  13   1    -0.02  -0.02  -0.02    -0.05  -0.14   0.00     0.06   0.17   0.14
  14   1     0.09   0.21   0.00     0.01   0.05   0.03     0.16   0.35   0.04
  15   1     0.06   0.17  -0.03     0.05   0.06   0.05    -0.12  -0.37  -0.06
  16   1     0.06  -0.14   0.12    -0.05  -0.12   0.12    -0.00   0.04  -0.03
  17   1     0.10  -0.10   0.09    -0.00   0.12  -0.05    -0.14   0.12  -0.09
  18   1    -0.05  -0.01  -0.06    -0.21   0.07  -0.00     0.15  -0.09  -0.11
  19   1    -0.02  -0.01   0.04     0.32  -0.17  -0.02    -0.12   0.04   0.06
  20   1    -0.01   0.02  -0.07     0.16  -0.10  -0.00    -0.10   0.07  -0.02
  21   1    -0.06   0.06   0.03    -0.29   0.14   0.06     0.00   0.04   0.13
  22   1     0.16   0.03   0.08    -0.15  -0.11  -0.12    -0.23   0.01  -0.09
  23   1     0.16   0.05   0.09     0.08   0.07   0.02     0.19   0.03   0.10
  24   1    -0.07  -0.11   0.02     0.06   0.13  -0.01     0.09   0.13   0.02
  25   1    -0.14  -0.20  -0.00     0.05   0.10  -0.06    -0.00   0.07  -0.06
  26   1     0.05   0.10  -0.03     0.04   0.01   0.06     0.04   0.03   0.03
  27   1     0.05   0.09  -0.05     0.04   0.01   0.03     0.10   0.14  -0.03
  28   1    -0.01  -0.01  -0.01    -0.03  -0.02  -0.01     0.09   0.16  -0.05
  29   1    -0.03  -0.02  -0.02    -0.05  -0.02  -0.05    -0.03  -0.07   0.02
  30   1    -0.00  -0.01   0.00    -0.05  -0.08   0.02    -0.02   0.05  -0.04
  31   1    -0.00  -0.01   0.00     0.02   0.08  -0.08    -0.02   0.06  -0.02
  32   1    -0.00  -0.01   0.00    -0.03  -0.06  -0.01    -0.04  -0.07   0.05
                     55                     56                     57
                        a                      a                      a 
 Frequencies --  1276.5192              1271.5406              1291.8195
 Red. masses --    99.0000                99.0000                99.0000
 Frc consts  --    99.0000                99.0000                99.0000
 IR Inten    --    99.0000                99.0000                99.0000
 Raman Activ --     0.0000                 0.0000                 0.0000
 Depolar     --     0.0000                 0.0000                 0.0000
 Atom AN      X      Y      Z        X      Y      Z        X      Y      Z
   1   6     0.01  -0.00  -0.01    -0.10   0.03  -0.01    -0.01   0.01  -0.02
   2   6     0.01  -0.01  -0.01     0.03  -0.00   0.06     0.00  -0.02   0.02
   3   6    -0.03   0.00   0.02     0.08   0.03  -0.06    -0.01   0.03   0.03
   4   6     0.01  -0.03  -0.02    -0.15  -0.16  -0.04     0.01  -0.15  -0.08
   5   6     0.07   0.05  -0.02     0.01   0.08   0.09     0.10  -0.02   0.04
   6   6    -0.04  -0.07   0.06     0.00   0.08  -0.10    -0.05   0.11   0.09
   7   6     0.15   0.03  -0.14     0.05  -0.14  -0.01     0.00   0.08  -0.10
   8   6    -0.06   0.27   0.06    -0.16  -0.03   0.07     0.16  -0.01  -0.04
   9   6     0.08   0.12   0.10    -0.09  -0.03  -0.04     0.10   0.06   0.02
  10   6     0.04  -0.08  -0.14     0.10  -0.04   0.02    -0.08   0.03  -0.02
  11   1    -0.00  -0.01  -0.00     0.04   0.01   0.03     0.00  -0.01   0.00
  12   1    -0.00   0.00   0.00     0.03   0.02   0.00     0.01   0.01   0.01
  13   1     0.00   0.01   0.01    -0.04  -0.09  -0.04    -0.01  -0.01   0.00
  14   1     0.01   0.07  -0.02    -0.04  -0.20   0.04     0.02   0.04   0.00
  15   1    -0.01  -0.05  -0.00     0.08   0.28   0.02     0.01   0.05   0.01
  16   1    -0.00   0.00  -0.01     0.15  -0.19   0.14     0.08  -0.09   0.06
  17   1    -0.00  -0.04   0.02    -0.06   0.12  -0.09    -0.08   0.03  -0.04
  18   1    -0.10   0.06   0.05     0.03   0.02   0.07    -0.16   0.09   0.10
  19   1     0.04  -0.02  -0.03     0.11  -0.04  -0.17     0.02  -0.00  -0.10
  20   1    -0.07   0.04   0.05    -0.24   0.12   0.15    -0.35   0.20   0.14
  21   1    -0.11   0.03  -0.02     0.28  -0.17  -0.11     0.13  -0.08  -0.05
  22   1     0.05  -0.06  -0.02    -0.04   0.06   0.01    -0.24  -0.03  -0.12
  23   1     0.12   0.05   0.05     0.17  -0.01   0.08     0.22   0.12   0.11
  24   1    -0.23  -0.35   0.10     0.00  -0.02   0.06     0.13   0.21  -0.05
  25   1    -0.00   0.09  -0.08     0.09   0.20  -0.06    -0.24  -0.36   0.01
  26   1    -0.20  -0.40   0.12     0.09   0.06   0.05    -0.06  -0.02  -0.05
  27   1    -0.11  -0.12  -0.11     0.15   0.23  -0.08    -0.16  -0.25   0.10
  28   1     0.05   0.07  -0.01     0.15   0.24  -0.05    -0.13  -0.21   0.04
  29   1    -0.24  -0.38   0.07    -0.03  -0.06   0.01    -0.00   0.01  -0.00
  30   1     0.04   0.12  -0.06    -0.03   0.04  -0.04     0.03  -0.03   0.03
  31   1    -0.05  -0.06   0.10    -0.02   0.07  -0.03     0.01  -0.06   0.03
  32   1    -0.02  -0.02   0.09    -0.03  -0.07   0.05     0.02   0.05  -0.03
                     58                     59                     60
                        a                      a                      a 
 Frequencies --  1289.1456              1315.0188              1286.0282
 Red. masses --    99.0000                99.0000                99.0000
 Frc consts  --    99.0000                99.0000                99.0000
 IR Inten    --    99.0000                99.0000                99.0000
 Raman Activ --     0.0000                 0.0000                 0.0000
 Depolar     --     0.0000                 0.0000                 0.0000
 Atom AN      X      Y      Z        X      Y      Z        X      Y      Z
   1   6     0.09  -0.02   0.01     0.02  -0.02   0.04    -0.02   0.00  -0.00
   2   6     0.01   0.00  -0.10     0.01   0.10  -0.05     0.01  -0.00   0.02
   3   6    -0.13  -0.07   0.06    -0.00  -0.08  -0.10     0.01   0.01  -0.01
   4   6     0.04  -0.06   0.09    -0.19   0.15   0.15     0.02   0.01  -0.01
   5   6     0.09   0.14  -0.10    -0.21   0.08   0.17     0.00  -0.01   0.02
   6   6    -0.02   0.01  -0.01     0.05   0.02  -0.09    -0.02  -0.02  -0.01
   7   6    -0.02  -0.03   0.06    -0.04  -0.01  -0.06    -0.09   0.09   0.07
   8   6    -0.07  -0.05  -0.01     0.04   0.04   0.02    -0.10   0.05   0.03
   9   6    -0.03  -0.06  -0.03     0.07   0.07   0.01     0.12  -0.09  -0.06
  10   6     0.03  -0.00   0.03    -0.02  -0.00  -0.03     0.06  -0.04  -0.03
  11   1    -0.03  -0.01  -0.02    -0.01   0.01  -0.00     0.01   0.01   0.01
  12   1    -0.04  -0.02  -0.01    -0.03  -0.04  -0.03     0.02   0.01   0.01
  13   1     0.03   0.07   0.04     0.01   0.02  -0.01    -0.01  -0.01  -0.01
  14   1     0.05   0.25  -0.06    -0.01  -0.09   0.01    -0.01  -0.04   0.01
  15   1    -0.08  -0.26   0.02    -0.05  -0.14   0.03     0.02   0.04  -0.00
  16   1    -0.17   0.16  -0.12    -0.14   0.10  -0.06     0.03  -0.03   0.02
  17   1     0.10  -0.24   0.16     0.16  -0.09   0.10    -0.01   0.03  -0.02
  18   1    -0.40   0.21   0.18     0.24  -0.14  -0.09     0.05  -0.02  -0.02
  19   1     0.29  -0.13  -0.11     0.37  -0.18  -0.08    -0.05   0.03   0.03
  20   1    -0.16   0.08   0.12     0.23  -0.11  -0.09     0.07  -0.01  -0.06
  21   1     0.13  -0.11  -0.16     0.35  -0.19  -0.08    -0.05   0.02   0.01
  22   1     0.16   0.04   0.08    -0.21   0.01  -0.08     0.03   0.01   0.03
  23   1    -0.10   0.01  -0.05     0.20  -0.04   0.10    -0.05  -0.01  -0.02
  24   1     0.01   0.02   0.02     0.04   0.08   0.01     0.05   0.10  -0.08
  25   1     0.03   0.01   0.02     0.02   0.00  -0.00    -0.03  -0.12   0.07
  26   1     0.12   0.15  -0.01    -0.04  -0.05   0.01     0.33   0.38   0.02
  27   1     0.04   0.06  -0.01    -0.08  -0.12   0.01    -0.30  -0.40  -0.02
  28   1     0.08   0.12  -0.00    -0.05  -0.08   0.02     0.25   0.34   0.06
  29   1     0.01   0.03  -0.02    -0.07  -0.10   0.01    -0.27  -0.30  -0.04
  30   1    -0.01   0.00  -0.01     0.02  -0.00   0.00     0.01   0.05  -0.04
  31   1     0.01   0.04  -0.03    -0.00  -0.04   0.04     0.00  -0.00  -0.00
  32   1    -0.01  -0.02   0.00    -0.00   0.01   0.01    -0.02  -0.04   0.04
                     61                     62                     63
                        a                      a                      a 
 Frequencies --  1359.5729              1364.7106              1349.0345
 Red. masses --    99.0000                99.0000                99.0000
 Frc consts  --    99.0000                99.0000                99.0000
 IR Inten    --    99.0000                99.0000                99.0000
 Raman Activ --     0.0000                 0.0000                 0.0000
 Depolar     --     0.0000                 0.0000                 0.0000
 Atom AN      X      Y      Z        X      Y      Z        X      Y      Z
   1   6    -0.01  -0.02   0.02    -0.01  -0.04   0.02    -0.02   0.02  -0.04
   2   6    -0.06   0.08  -0.03    -0.06   0.11  -0.02    -0.06  -0.18   0.01
   3   6     0.18  -0.27   0.15     0.19  -0.31   0.18     0.03   0.02   0.06
   4   6     0.01   0.05  -0.04    -0.00   0.09  -0.06     0.06  -0.03  -0.02
   5   6    -0.05  -0.05  -0.03     0.07   0.06   0.04    -0.03   0.01  -0.01
   6   6     0.38   0.05   0.15    -0.32  -0.06  -0.13     0.02   0.06  -0.07
   7   6    -0.09   0.04  -0.03     0.08  -0.01   0.01    -0.18  -0.26   0.05
   8   6    -0.00   0.02   0.02    -0.00  -0.02  -0.02    -0.00  -0.05   0.07
   9   6     0.00  -0.00  -0.01    -0.00  -0.00   0.01     0.20   0.29  -0.03
  10   6     0.01  -0.00  -0.00    -0.00   0.00   0.00    -0.06  -0.01  -0.09
  11   1     0.01   0.04   0.00     0.01   0.05   0.00     0.03   0.00   0.01
  12   1    -0.01  -0.01   0.00    -0.01  -0.01   0.00     0.04   0.05   0.05
  13   1     0.00   0.02  -0.00     0.01   0.03  -0.00    -0.00   0.01   0.02
  14   1    -0.02  -0.13   0.03    -0.04  -0.16   0.03     0.05   0.17  -0.02
  15   1     0.01   0.08  -0.04     0.01   0.06  -0.07     0.05   0.19  -0.02
  16   1    -0.18   0.22  -0.15    -0.20   0.24  -0.17    -0.01   0.07  -0.06
  17   1    -0.17   0.25  -0.19    -0.20   0.30  -0.21    -0.03   0.00  -0.01
  18   1    -0.14   0.05   0.00    -0.13   0.03  -0.03    -0.08   0.04   0.03
  19   1     0.06  -0.03   0.00     0.10  -0.05  -0.02    -0.09   0.04   0.02
  20   1    -0.13   0.08  -0.01     0.10  -0.07   0.04     0.02  -0.01  -0.01
  21   1     0.08  -0.03  -0.01    -0.09   0.05   0.02     0.05  -0.02  -0.01
  22   1    -0.36  -0.04  -0.16     0.30   0.03   0.14     0.11   0.07   0.08
  23   1    -0.36  -0.06  -0.18     0.31   0.06   0.15    -0.07  -0.03  -0.04
  24   1    -0.09  -0.12  -0.04     0.06   0.08   0.05     0.19   0.28  -0.02
  25   1     0.07   0.08   0.01    -0.06  -0.09  -0.00     0.20   0.29  -0.01
  26   1    -0.00  -0.02   0.02    -0.00   0.02  -0.01     0.01   0.06  -0.00
  27   1    -0.03  -0.03   0.00     0.02   0.02  -0.00     0.04   0.03  -0.02
  28   1     0.01   0.02   0.00    -0.01  -0.01   0.00    -0.21  -0.30   0.04
  29   1    -0.02  -0.02  -0.00     0.01   0.02   0.00    -0.20  -0.31   0.03
  30   1    -0.00   0.00  -0.00     0.00   0.00   0.00     0.04  -0.04   0.02
  31   1    -0.00  -0.00   0.00     0.00   0.00  -0.00    -0.02  -0.11   0.11
  32   1    -0.00  -0.01   0.00     0.00   0.00  -0.00    -0.02   0.00   0.06
                     64                     65                     66
                        a                      a                      a 
 Frequencies --  1352.9371              1375.5597              1377.7583
 Red. masses --    99.0000                99.0000                99.0000
 Frc consts  --    99.0000                99.0000                99.0000
 IR Inten    --    99.0000                99.0000                99.0000
 Raman Activ --     0.0000                 0.0000                 0.0000
 Depolar     --     0.0000                 0.0000                 0.0000
 Atom AN      X      Y      Z        X      Y      Z        X      Y      Z
   1   6     0.05  -0.05   0.10     0.01  -0.02   0.01    -0.01  -0.01   0.00
   2   6     0.14   0.46  -0.02     0.02   0.07  -0.01     0.01   0.02   0.00
   3   6    -0.09  -0.04  -0.06    -0.08   0.02   0.05    -0.00  -0.00   0.01
   4   6     0.03  -0.03  -0.03     0.36  -0.19  -0.11     0.02  -0.02  -0.02
   5   6     0.08  -0.03  -0.05    -0.36   0.19   0.11     0.01  -0.01   0.01
   6   6     0.01   0.03   0.01     0.04  -0.05  -0.06    -0.00   0.07  -0.03
   7   6    -0.06  -0.10   0.02     0.03   0.05  -0.00    -0.20  -0.29   0.01
   8   6    -0.01  -0.03   0.03    -0.01   0.01  -0.01     0.24   0.35  -0.03
   9   6     0.08   0.12  -0.01    -0.01  -0.02   0.00    -0.15  -0.25   0.05
  10   6    -0.02  -0.01  -0.03     0.00  -0.01   0.01     0.04   0.04   0.02
  11   1    -0.09  -0.02  -0.03    -0.02   0.01  -0.01     0.00   0.00   0.00
  12   1    -0.10  -0.13  -0.12     0.00  -0.00   0.00     0.01   0.00   0.00
  13   1     0.01  -0.04  -0.07     0.01   0.01  -0.02     0.00   0.01  -0.00
  14   1    -0.12  -0.42   0.05     0.01  -0.02   0.01    -0.01  -0.01   0.00
  15   1    -0.13  -0.47   0.05    -0.03  -0.09   0.05    -0.00  -0.01   0.00
  16   1     0.07  -0.19   0.16     0.06  -0.06   0.03     0.01  -0.01   0.01
  17   1    -0.04   0.05  -0.04    -0.09   0.06  -0.05    -0.01   0.01  -0.01
  18   1    -0.04   0.03   0.02    -0.33   0.14   0.09    -0.03   0.03   0.03
  19   1    -0.03   0.00   0.01    -0.32   0.17   0.07    -0.03   0.01   0.01
  20   1    -0.11   0.05   0.04     0.31  -0.18  -0.08    -0.02   0.03  -0.02
  21   1    -0.09   0.06   0.03     0.33  -0.15  -0.08     0.01  -0.02  -0.02
  22   1     0.07   0.02   0.04    -0.07   0.00  -0.02     0.09   0.04   0.05
  23   1    -0.09   0.00  -0.04     0.13  -0.02   0.05    -0.02  -0.02  -0.01
  24   1     0.07   0.10  -0.01    -0.04  -0.07  -0.03     0.17   0.27   0.01
  25   1     0.07   0.11  -0.00    -0.02  -0.00  -0.01     0.18   0.23  -0.00
  26   1     0.01   0.04  -0.01     0.01  -0.03   0.01    -0.20  -0.30   0.03
  27   1     0.03   0.03  -0.01    -0.01  -0.00   0.01    -0.22  -0.30   0.03
  28   1    -0.08  -0.12   0.02     0.01   0.02  -0.00     0.14   0.19  -0.03
  29   1    -0.08  -0.12   0.01     0.01   0.02  -0.00     0.12   0.21  -0.02
  30   1     0.02  -0.02   0.01    -0.00   0.01  -0.00    -0.03   0.01  -0.01
  31   1    -0.01  -0.04   0.04     0.00   0.01  -0.01     0.01   0.04  -0.03
  32   1    -0.01   0.00   0.02     0.01   0.00  -0.01     0.00  -0.01  -0.03
                     67                     68                     69
                        a                      a                      a 
 Frequencies --  1414.6218              1416.8908              2958.4195
 Red. masses --    99.0000                99.0000                99.0000
 Frc consts  --    99.0000                99.0000                99.0000
 IR Inten    --    99.0000                99.0000                99.0000
 Raman Activ --     0.0000                 0.0000                 0.0000
 Depolar     --     0.0000                 0.0000                 0.0000
 Atom AN      X      Y      Z        X      Y      Z        X      Y      Z
   1   6    -0.18  -0.35  -0.17     0.01   0.02   0.01    -0.00   0.00  -0.00
   2   6     0.04   0.09  -0.01    -0.00  -0.01   0.00     0.04  -0.01  -0.02
   3   6    -0.05   0.01  -0.03     0.00  -0.00   0.00     0.01   0.10   0.13
   4   6     0.00  -0.00   0.03    -0.00   0.00  -0.00    -0.04  -0.11   0.05
   5   6     0.01  -0.01  -0.02     0.00  -0.00  -0.00     0.08   0.13   0.04
   6   6     0.00   0.00   0.01     0.00   0.00  -0.00    -0.01  -0.04   0.04
   7   6    -0.00  -0.00   0.00    -0.02  -0.02  -0.01     0.02  -0.02  -0.01
   8   6    -0.00  -0.01  -0.00     0.01  -0.00   0.02    -0.02   0.02   0.02
   9   6     0.00   0.01  -0.00     0.05   0.07  -0.00     0.03  -0.02  -0.02
  10   6    -0.01  -0.02   0.01    -0.13  -0.35   0.22    -0.00   0.00   0.00
  11   1     0.31   0.41   0.04    -0.02  -0.02  -0.00    -0.00  -0.00   0.00
  12   1     0.24   0.25   0.35    -0.01  -0.01  -0.02     0.00  -0.01   0.01
  13   1     0.04   0.46   0.19    -0.00  -0.02  -0.02     0.01  -0.00   0.00
  14   1     0.01  -0.09   0.03    -0.00   0.01  -0.00    -0.06   0.03   0.11
  15   1    -0.04  -0.10   0.07     0.00   0.01  -0.00    -0.07   0.02  -0.02
  16   1     0.04  -0.05   0.02    -0.00   0.00  -0.00    -0.21  -0.30  -0.19
  17   1     0.04   0.00   0.02    -0.00  -0.00  -0.00     0.19  -0.07  -0.29
  18   1    -0.01  -0.03  -0.03     0.00  -0.00   0.00     0.06   0.30  -0.27
  19   1     0.01   0.01  -0.04     0.00  -0.00   0.00     0.09   0.12   0.10
  20   1    -0.02  -0.00   0.03    -0.00   0.00   0.00    -0.28  -0.37  -0.25
  21   1    -0.00   0.02   0.02    -0.00   0.00   0.00    -0.02  -0.12   0.13
  22   1    -0.00  -0.00  -0.00     0.00   0.00   0.00     0.04   0.17  -0.14
  23   1    -0.01  -0.00  -0.01    -0.01   0.00  -0.00     0.01  -0.01  -0.01
  24   1     0.00  -0.00  -0.00     0.02   0.03   0.00    -0.06   0.04  -0.02
  25   1     0.00   0.01  -0.00     0.02   0.03  -0.00    -0.03   0.02   0.06
  26   1     0.01  -0.00   0.00    -0.00  -0.01   0.01     0.04  -0.03  -0.09
  27   1     0.01   0.01   0.01    -0.01  -0.01   0.01     0.04  -0.03   0.01
  28   1    -0.01  -0.01   0.00    -0.04  -0.07  -0.04    -0.06   0.04  -0.02
  29   1    -0.00  -0.01   0.00    -0.08  -0.04  -0.02    -0.04   0.04   0.10
  30   1     0.00   0.03  -0.01     0.09   0.49  -0.11     0.00  -0.00  -0.01
  31   1    -0.00   0.01  -0.02    -0.00   0.30  -0.40    -0.00   0.00   0.00
  32   1     0.02   0.02  -0.02     0.31   0.33  -0.24     0.01  -0.01   0.00
                     70                     71                     72
                        a                      a                      a 
 Frequencies --  2955.3826              2956.2691              2954.4451
 Red. masses --    99.0000                99.0000                99.0000
 Frc consts  --    99.0000                99.0000                99.0000
 IR Inten    --    99.0000                99.0000                99.0000
 Raman Activ --     0.0000                 0.0000                 0.0000
 Depolar     --     0.0000                 0.0000                 0.0000
 Atom AN      X      Y      Z        X      Y      Z        X      Y      Z
   1   6    -0.00   0.00  -0.00    -0.00   0.00  -0.00    -0.00   0.00  -0.00
   2   6     0.05  -0.01  -0.02     0.01  -0.00  -0.00     0.02  -0.01  -0.01
   3   6    -0.02   0.11   0.17    -0.01   0.02   0.03    -0.02   0.04   0.07
   4   6     0.00   0.03  -0.02     0.00   0.03  -0.03     0.02   0.07  -0.04
   5   6    -0.06  -0.10  -0.03     0.01   0.02  -0.00    -0.05  -0.06  -0.03
   6   6     0.05   0.04  -0.12    -0.05  -0.07   0.12    -0.08  -0.01   0.17
   7   6    -0.05   0.04   0.02    -0.13   0.08   0.01     0.11  -0.08  -0.03
   8   6     0.01  -0.01  -0.00     0.09  -0.07  -0.08    -0.03   0.02   0.01
   9   6     0.00  -0.00  -0.00    -0.06   0.04   0.05     0.00  -0.00  -0.01
  10   6    -0.00   0.00   0.00     0.00  -0.00  -0.00    -0.00  -0.00  -0.00
  11   1    -0.00  -0.00   0.00    -0.00   0.00   0.00    -0.00  -0.00   0.00
  12   1     0.00  -0.01   0.00     0.00  -0.00   0.00     0.00  -0.00   0.00
  13   1     0.01  -0.00   0.00     0.00  -0.00   0.00     0.01  -0.00   0.00
  14   1    -0.07   0.03   0.13    -0.01   0.00   0.02    -0.03   0.01   0.06
  15   1    -0.10   0.03  -0.03    -0.01   0.00  -0.00    -0.06   0.02  -0.02
  16   1    -0.21  -0.28  -0.18    -0.03  -0.04  -0.02    -0.07  -0.09  -0.05
  17   1     0.29  -0.12  -0.44     0.06  -0.03  -0.10     0.13  -0.06  -0.21
  18   1    -0.02  -0.12   0.10    -0.02  -0.11   0.09    -0.04  -0.23   0.20
  19   1     0.00   0.01  -0.00     0.01   0.01   0.00    -0.03  -0.04  -0.04
  20   1     0.20   0.26   0.18    -0.03  -0.03  -0.03     0.17   0.22   0.14
  21   1     0.02   0.09  -0.10    -0.01  -0.05   0.04    -0.00   0.01  -0.02
  22   1    -0.06  -0.27   0.21     0.08   0.34  -0.28     0.05   0.24  -0.18
  23   1    -0.13   0.12   0.23     0.09  -0.08  -0.15     0.25  -0.21  -0.45
  24   1     0.13  -0.08   0.04     0.43  -0.27   0.13    -0.31   0.19  -0.10
  25   1     0.06  -0.05  -0.13     0.05  -0.04  -0.15    -0.10   0.08   0.23
  26   1    -0.01   0.01   0.02    -0.15   0.14   0.37     0.03  -0.02  -0.07
  27   1    -0.03   0.02  -0.01    -0.20   0.13  -0.07     0.09  -0.06   0.03
  28   1    -0.01   0.01  -0.00     0.13  -0.09   0.04    -0.01   0.00  -0.00
  29   1    -0.00   0.00   0.00     0.09  -0.08  -0.23    -0.01   0.01   0.03
  30   1     0.00  -0.00  -0.00    -0.01   0.00   0.02     0.00   0.00  -0.00
  31   1    -0.00  -0.00  -0.00     0.00  -0.00   0.00     0.00   0.00   0.00
  32   1    -0.00  -0.00   0.00    -0.01   0.01  -0.01     0.00  -0.00   0.00
                     73                     74                     75
                        a                      a                      a 
 Frequencies --  2961.7032              2959.5874              2964.7203
 Red. masses --    99.0000                99.0000                99.0000
 Frc consts  --    99.0000                99.0000                99.0000
 IR Inten    --    99.0000                99.0000                99.0000
 Raman Activ --     0.0000                 0.0000                 0.0000
 Depolar     --     0.0000                 0.0000                 0.0000
 Atom AN      X      Y      Z        X      Y      Z        X      Y      Z
   1   6     0.01  -0.01  -0.00     0.00  -0.00   0.00     0.01  -0.01  -0.00
   2   6    -0.15   0.05   0.01    -0.02   0.01  -0.00    -0.18   0.05   0.01
   3   6     0.07   0.06   0.00     0.03   0.03   0.01     0.00   0.05   0.04
   4   6    -0.02  -0.08   0.05    -0.02  -0.08   0.05     0.03   0.11  -0.08
   5   6    -0.06  -0.07  -0.04    -0.01  -0.01  -0.01     0.05   0.07   0.03
   6   6    -0.03   0.01   0.05     0.01   0.05  -0.03     0.03  -0.03  -0.04
   7   6    -0.05   0.03   0.00     0.10  -0.06  -0.00     0.04  -0.02  -0.00
   8   6    -0.01   0.01   0.00     0.05  -0.04  -0.06    -0.01   0.01   0.02
   9   6     0.06  -0.04  -0.03    -0.15   0.11   0.09    -0.04   0.03   0.02
  10   6    -0.01   0.00   0.00     0.01  -0.01  -0.01     0.00  -0.00  -0.00
  11   1    -0.01   0.00   0.02    -0.00   0.00   0.00    -0.01   0.01   0.03
  12   1     0.00   0.01  -0.01     0.00   0.00  -0.00     0.00   0.02  -0.02
  13   1    -0.05   0.01  -0.01    -0.01   0.00  -0.00    -0.05   0.01  -0.01
  14   1     0.07  -0.04  -0.17     0.00  -0.00  -0.01     0.08  -0.04  -0.18
  15   1     0.49  -0.13   0.12     0.07  -0.02   0.02     0.57  -0.15   0.14
  16   1    -0.18  -0.28  -0.20    -0.08  -0.12  -0.08    -0.09  -0.13  -0.08
  17   1    -0.11   0.06   0.19    -0.02   0.02   0.04     0.06  -0.02  -0.08
  18   1     0.05   0.26  -0.22     0.05   0.25  -0.21    -0.08  -0.38   0.32
  19   1     0.03   0.03   0.03     0.02   0.03   0.03    -0.02  -0.01  -0.03
  20   1     0.20   0.27   0.18     0.04   0.06   0.04    -0.18  -0.23  -0.15
  21   1    -0.01  -0.01  -0.00    -0.00  -0.01   0.01     0.00  -0.01   0.02
  22   1     0.01   0.05  -0.03    -0.05  -0.18   0.15     0.01   0.02  -0.03
  23   1     0.09  -0.07  -0.16     0.03  -0.02  -0.06    -0.10   0.08   0.18
  24   1     0.17  -0.10   0.05    -0.31   0.20  -0.09    -0.12   0.07  -0.03
  25   1     0.02  -0.02  -0.05    -0.03   0.03   0.09    -0.01   0.01   0.04
  26   1     0.01  -0.01  -0.02    -0.11   0.10   0.26     0.03  -0.02  -0.06
  27   1     0.02  -0.01   0.01    -0.09   0.06  -0.03     0.01  -0.01   0.01
  28   1    -0.14   0.09  -0.04     0.36  -0.24   0.10     0.09  -0.06   0.02
  29   1    -0.06   0.06   0.16     0.18  -0.15  -0.44     0.04  -0.03  -0.09
  30   1     0.01  -0.01  -0.02    -0.02   0.01   0.04    -0.01   0.00   0.01
  31   1    -0.00   0.00   0.00     0.00  -0.00  -0.00     0.00  -0.00  -0.00
  32   1     0.02  -0.01   0.01    -0.04   0.03  -0.01    -0.01   0.01  -0.00
                     76                     77                     78
                        a                      a                      a 
 Frequencies --  3011.3372              2989.8208              2971.4322
 Red. masses --    99.0000                99.0000                99.0000
 Frc consts  --    99.0000                99.0000                99.0000
 IR Inten    --    99.0000                99.0000                99.0000
 Raman Activ --     0.0000                 0.0000                 0.0000
 Depolar     --     0.0000                 0.0000                 0.0000
 Atom AN      X      Y      Z        X      Y      Z        X      Y      Z
   1   6     0.02  -0.01   0.02    -0.01  -0.01   0.03    -0.00   0.00  -0.00
   2   6     0.00  -0.00  -0.02     0.02  -0.02  -0.18     0.03  -0.01  -0.00
   3   6    -0.01  -0.03  -0.03     0.01  -0.02  -0.03     0.02   0.01  -0.01
   4   6    -0.11  -0.14  -0.14     0.01   0.01   0.02    -0.00  -0.01   0.02
   5   6    -0.01   0.01  -0.06    -0.00  -0.04   0.05    -0.03  -0.05  -0.02
   6   6     0.01   0.00  -0.02     0.01  -0.00  -0.01     0.01  -0.10  -0.00
   7   6     0.01  -0.01  -0.04     0.01  -0.01  -0.10    -0.03   0.01  -0.04
   8   6     0.00  -0.00  -0.01    -0.01   0.01  -0.05    -0.09   0.08   0.13
   9   6     0.00  -0.00  -0.01    -0.01   0.01  -0.04    -0.10   0.07   0.07
  10   6     0.00   0.00   0.01     0.01   0.00   0.01     0.01  -0.01  -0.01
  11   1     0.03  -0.01  -0.04     0.04  -0.02  -0.09     0.00  -0.00  -0.00
  12   1    -0.00   0.04  -0.03    -0.01   0.05  -0.03     0.00  -0.00   0.00
  13   1    -0.09   0.02  -0.01    -0.00  -0.00   0.01     0.01  -0.00   0.00
  14   1    -0.04   0.02   0.06    -0.36   0.16   0.60    -0.01   0.01   0.03
  15   1     0.02  -0.00   0.00     0.28  -0.08   0.04    -0.08   0.02  -0.02
  16   1     0.05   0.07   0.05     0.03   0.04   0.03    -0.03  -0.05  -0.04
  17   1    -0.03   0.01   0.04    -0.05   0.02   0.07    -0.05   0.02   0.08
  18   1    -0.04  -0.15   0.09     0.01   0.03  -0.02     0.01   0.06  -0.05
  19   1     0.45   0.64   0.39    -0.05  -0.07  -0.04    -0.01  -0.01  -0.01
  20   1     0.08   0.11   0.06    -0.03  -0.04  -0.02     0.12   0.15   0.10
  21   1    -0.05  -0.17   0.14     0.05   0.18  -0.15    -0.00   0.01  -0.01
  22   1    -0.01  -0.03   0.02    -0.00  -0.01   0.01     0.08   0.28  -0.25
  23   1    -0.03   0.02   0.05    -0.02   0.02   0.04    -0.14   0.09   0.25
  24   1     0.03  -0.02   0.00     0.14  -0.09   0.02     0.15  -0.09   0.03
  25   1    -0.07   0.06   0.13    -0.17   0.13   0.32    -0.07   0.05   0.12
  26   1    -0.02   0.01   0.03    -0.07   0.06   0.13     0.23  -0.20  -0.52
  27   1     0.02  -0.01   0.00     0.11  -0.08   0.02     0.09  -0.06   0.04
  28   1     0.01  -0.01   0.00     0.10  -0.07   0.02     0.22  -0.15   0.06
  29   1    -0.01   0.01   0.02    -0.05   0.05   0.11     0.12  -0.10  -0.30
  30   1     0.01  -0.01  -0.02     0.01  -0.01  -0.03    -0.02   0.02   0.06
  31   1    -0.01  -0.00  -0.00    -0.02  -0.02  -0.01     0.01   0.01   0.00
  32   1    -0.00   0.00   0.00    -0.02   0.01  -0.00    -0.04   0.02  -0.01
                     79                     80                     81
                        a                      a                      a 
 Frequencies --  2991.6267              3007.3928              3028.2432
 Red. masses --    99.0000                99.0000                99.0000
 Frc consts  --    99.0000                99.0000                99.0000
 IR Inten    --    99.0000                99.0000                99.0000
 Raman Activ --     0.0000                 0.0000                 0.0000
 Depolar     --     0.0000                 0.0000                 0.0000
 Atom AN      X      Y      Z        X      Y      Z        X      Y      Z
   1   6    -0.00  -0.01   0.02     0.02  -0.00  -0.01     0.00  -0.00   0.00
   2   6     0.01  -0.02  -0.11    -0.01   0.01   0.04    -0.00  -0.00  -0.00
   3   6    -0.00  -0.01  -0.02    -0.01  -0.00   0.01    -0.00  -0.00  -0.00
   4   6    -0.01  -0.01  -0.01    -0.04  -0.07  -0.02    -0.00  -0.00  -0.00
   5   6    -0.00   0.01  -0.01    -0.03  -0.15   0.16    -0.00  -0.00   0.00
   6   6    -0.01  -0.01   0.03    -0.01  -0.02   0.03     0.00  -0.00  -0.00
   7   6     0.01   0.00   0.12     0.01  -0.01   0.01     0.00  -0.00  -0.00
   8   6     0.08  -0.05   0.09     0.03  -0.02   0.02     0.01  -0.01  -0.00
   9   6     0.03  -0.02   0.05     0.01  -0.00   0.00     0.04  -0.03  -0.01
  10   6    -0.02  -0.00  -0.02    -0.01   0.00  -0.01     0.24  -0.14  -0.05
  11   1     0.03  -0.01  -0.06    -0.02   0.01   0.05    -0.00   0.00   0.00
  12   1    -0.01   0.04  -0.02     0.00  -0.00  -0.00    -0.00   0.01  -0.01
  13   1    -0.01   0.00   0.00    -0.04   0.01  -0.01    -0.01   0.00  -0.00
  14   1    -0.23   0.11   0.39     0.08  -0.04  -0.14    -0.00   0.00  -0.00
  15   1     0.18  -0.05   0.02    -0.03   0.01  -0.00     0.00  -0.00   0.00
  16   1     0.03   0.04   0.03     0.01   0.02   0.01     0.00   0.00   0.00
  17   1    -0.03   0.01   0.04     0.02  -0.01  -0.03     0.00  -0.00  -0.00
  18   1    -0.00  -0.01   0.00     0.00   0.04  -0.05     0.00   0.00  -0.00
  19   1     0.02   0.03   0.02     0.14   0.21   0.13     0.00   0.01   0.00
  20   1     0.02   0.03   0.02    -0.07  -0.11  -0.03     0.00   0.00   0.00
  21   1    -0.01  -0.05   0.04     0.17   0.65  -0.55     0.00   0.01  -0.01
  22   1     0.01   0.06  -0.05     0.02   0.08  -0.07     0.00   0.00  -0.00
  23   1     0.02  -0.02  -0.04     0.02  -0.02  -0.03    -0.00   0.00   0.00
  24   1    -0.22   0.14  -0.04    -0.04   0.02  -0.01    -0.01   0.01  -0.00
  25   1     0.20  -0.16  -0.38     0.00  -0.00  -0.01    -0.00   0.00   0.01
  26   1     0.12  -0.10  -0.22     0.02  -0.02  -0.04    -0.00   0.00   0.01
  27   1    -0.39   0.27  -0.08    -0.14   0.10  -0.03    -0.05   0.03  -0.01
  28   1    -0.18   0.12  -0.03    -0.03   0.02  -0.01    -0.09   0.06  -0.02
  29   1     0.07  -0.06  -0.14     0.00  -0.00  -0.00    -0.02   0.02   0.05
  30   1    -0.02   0.01   0.03    -0.01   0.00   0.01    -0.15   0.13   0.41
  31   1     0.03   0.03   0.02     0.01   0.01   0.01    -0.04  -0.09  -0.07
  32   1     0.05  -0.04   0.01     0.03  -0.02   0.01    -0.66   0.45  -0.17
                     82                     83                     84
                        a                      a                      a 
 Frequencies --  3034.2655              2976.7327              2975.0260
 Red. masses --    99.0000                99.0000                99.0000
 Frc consts  --    99.0000                99.0000                99.0000
 IR Inten    --    99.0000                99.0000                99.0000
 Raman Activ --     0.0000                 0.0000                 0.0000
 Depolar     --     0.0000                 0.0000                 0.0000
 Atom AN      X      Y      Z        X      Y      Z        X      Y      Z
   1   6    -0.18   0.19   0.00    -0.01   0.00   0.00    -0.01   0.00   0.00
   2   6    -0.03   0.01   0.01     0.08  -0.02  -0.01     0.06  -0.02  -0.00
   3   6    -0.00  -0.00   0.00     0.12   0.06  -0.03     0.10   0.04  -0.04
   4   6    -0.01  -0.01  -0.01     0.01   0.05  -0.05     0.01   0.03  -0.02
   5   6    -0.00  -0.01   0.00     0.03   0.04   0.04    -0.02  -0.03  -0.01
   6   6     0.00  -0.00   0.00    -0.02   0.09   0.01     0.03  -0.11  -0.03
   7   6     0.00  -0.00  -0.00    -0.03   0.02  -0.03     0.06  -0.04   0.04
   8   6     0.00  -0.00   0.00    -0.02   0.02   0.03     0.04  -0.03  -0.08
   9   6     0.00  -0.00   0.00     0.01  -0.00   0.06     0.03  -0.02  -0.04
  10   6     0.00  -0.00   0.01    -0.00  -0.00  -0.01    -0.00   0.01   0.01
  11   1     0.21  -0.07  -0.49     0.01  -0.00  -0.02     0.01  -0.00  -0.02
  12   1     0.05  -0.56   0.42    -0.00  -0.01   0.01    -0.00  -0.00   0.00
  13   1     0.36  -0.05   0.05     0.03  -0.01   0.01     0.03  -0.00   0.00
  14   1     0.02  -0.01  -0.04    -0.04   0.02   0.08    -0.02   0.01   0.05
  15   1     0.07  -0.02   0.02    -0.23   0.06  -0.06    -0.21   0.06  -0.05
  16   1     0.00   0.01   0.00    -0.22  -0.34  -0.24    -0.16  -0.25  -0.18
  17   1     0.01  -0.00  -0.01    -0.21   0.11   0.36    -0.18   0.10   0.31
  18   1    -0.00  -0.01   0.00    -0.04  -0.21   0.18    -0.02  -0.10   0.08
  19   1     0.03   0.04   0.03     0.02   0.03   0.01    -0.01  -0.01  -0.01
  20   1     0.00   0.00   0.00    -0.12  -0.16  -0.10     0.06   0.08   0.05
  21   1     0.01   0.02  -0.02     0.01   0.05  -0.03     0.01   0.02  -0.02
  22   1     0.00   0.00  -0.00    -0.07  -0.23   0.21     0.08   0.27  -0.25
  23   1    -0.00   0.00   0.00     0.13  -0.09  -0.23    -0.19   0.14   0.35
  24   1    -0.01   0.00  -0.00     0.16  -0.10   0.04    -0.27   0.17  -0.07
  25   1    -0.00   0.00   0.00    -0.04   0.03   0.07     0.05  -0.04  -0.08
  26   1     0.00  -0.00  -0.00     0.06  -0.05  -0.13    -0.13   0.12   0.30
  27   1    -0.01   0.01  -0.00     0.00  -0.00   0.01     0.01  -0.01  -0.01
  28   1    -0.01   0.00  -0.00    -0.14   0.09  -0.02    -0.03   0.02  -0.01
  29   1     0.00  -0.00  -0.01     0.10  -0.08  -0.21    -0.07   0.06   0.17
  30   1     0.02  -0.02  -0.05    -0.01   0.01   0.03     0.02  -0.01  -0.04
  31   1     0.00  -0.00   0.00     0.01   0.01   0.01    -0.01  -0.01  -0.00
  32   1    -0.04   0.03  -0.01     0.01  -0.01   0.00     0.01  -0.00   0.00
                     85                     86                     87
                        a                      a                      a 
 Frequencies --  2977.6373              3032.0910              3031.5057
 Red. masses --    99.0000                99.0000                99.0000
 Frc consts  --    99.0000                99.0000                99.0000
 IR Inten    --    99.0000                99.0000                99.0000
 Raman Activ --     0.0000                 0.0000                 0.0000
 Depolar     --     0.0000                 0.0000                 0.0000
 Atom AN      X      Y      Z        X      Y      Z        X      Y      Z
   1   6    -0.00   0.00   0.00     0.05   0.08  -0.23     0.04   0.04  -0.14
   2   6     0.02  -0.00   0.00     0.01  -0.00  -0.04     0.01  -0.00  -0.02
   3   6     0.03   0.01  -0.01     0.00  -0.01  -0.01     0.00  -0.00  -0.01
   4   6     0.00   0.01  -0.02    -0.00  -0.01  -0.01    -0.00  -0.00  -0.00
   5   6     0.01   0.02   0.00     0.00   0.00  -0.01    -0.00  -0.00  -0.00
   6   6    -0.01   0.04   0.02     0.00   0.00  -0.00    -0.00  -0.00   0.00
   7   6    -0.02   0.02   0.04     0.00  -0.00  -0.01     0.00  -0.00   0.00
   8   6     0.03  -0.02   0.05    -0.00   0.00  -0.01     0.01  -0.00   0.01
   9   6    -0.09   0.05  -0.15    -0.00  -0.00  -0.02     0.00   0.00   0.03
  10   6     0.02   0.00   0.01    -0.05  -0.05  -0.13     0.08   0.09   0.21
  11   1     0.00  -0.00  -0.00    -0.28   0.13   0.55    -0.19   0.08   0.38
  12   1    -0.00  -0.00   0.00     0.06  -0.41   0.27     0.03  -0.21   0.14
  13   1     0.01  -0.00   0.00     0.05   0.00  -0.03     0.01   0.00  -0.02
  14   1    -0.00   0.00   0.01    -0.06   0.03   0.10    -0.04   0.02   0.06
  15   1    -0.06   0.02  -0.02     0.03  -0.01   0.00     0.02  -0.01   0.00
  16   1    -0.05  -0.08  -0.06     0.01   0.01   0.01     0.01   0.01   0.00
  17   1    -0.05   0.03   0.09    -0.02   0.01   0.03    -0.01   0.00   0.02
  18   1    -0.01  -0.06   0.05    -0.00  -0.01   0.01    -0.00  -0.00   0.00
  19   1     0.01   0.02   0.01     0.02   0.03   0.02     0.01   0.01   0.01
  20   1    -0.03  -0.03  -0.02     0.01   0.01   0.00     0.00   0.00   0.00
  21   1    -0.01  -0.02   0.02    -0.01  -0.03   0.02    -0.00   0.00   0.00
  22   1    -0.02  -0.07   0.07    -0.00  -0.01   0.01     0.00   0.00  -0.00
  23   1     0.07  -0.06  -0.13    -0.01   0.00   0.01     0.00  -0.00  -0.00
  24   1     0.03  -0.02   0.01     0.01  -0.00   0.00    -0.01   0.01  -0.00
  25   1     0.07  -0.05  -0.13    -0.01   0.01   0.02     0.01  -0.00  -0.01
  26   1     0.08  -0.07  -0.17    -0.01   0.01   0.03     0.02  -0.02  -0.04
  27   1    -0.22   0.15  -0.05     0.02  -0.01   0.00    -0.04   0.03  -0.01
  28   1     0.55  -0.37   0.10     0.02  -0.02   0.00    -0.04   0.02  -0.01
  29   1    -0.22   0.18   0.45    -0.02   0.02   0.05     0.03  -0.03  -0.07
  30   1     0.01  -0.01  -0.02    -0.15   0.11   0.30     0.25  -0.18  -0.49
  31   1    -0.03  -0.03  -0.02     0.21   0.17   0.14    -0.34  -0.28  -0.23
  32   1    -0.04   0.03  -0.01     0.12  -0.10   0.01    -0.20   0.16  -0.02
                     88                     89                     90
                        a                      a                      a 
 Frequencies --  2987.0994              3045.7427              3037.3210
 Red. masses --    99.0000                99.0000                99.0000
 Frc consts  --    99.0000                99.0000                99.0000
 IR Inten    --    99.0000                99.0000                99.0000
 Raman Activ --     0.0000                 0.0000                 0.0000
 Depolar     --     0.0000                 0.0000                 0.0000
 Atom AN      X      Y      Z        X      Y      Z        X      Y      Z
   1   6    -0.00   0.00  -0.00    -0.19  -0.04  -0.02    -0.00   0.01  -0.00
   2   6    -0.01   0.00   0.03    -0.02   0.00  -0.00    -0.00   0.00  -0.00
   3   6    -0.00   0.01   0.01    -0.00  -0.00  -0.00    -0.00  -0.00   0.00
   4   6     0.02   0.02   0.02    -0.01  -0.02  -0.01    -0.00  -0.00  -0.00
   5   6    -0.00   0.01  -0.03    -0.00  -0.00  -0.00    -0.00  -0.00  -0.00
   6   6     0.02  -0.01  -0.04     0.00  -0.00  -0.00     0.00  -0.00  -0.00
   7   6     0.06  -0.05  -0.13     0.00  -0.00  -0.00     0.00  -0.00   0.00
   8   6     0.15  -0.10   0.04    -0.00   0.00  -0.00    -0.00  -0.00  -0.00
   9   6     0.05  -0.03  -0.01     0.00  -0.00   0.00     0.00   0.00  -0.00
  10   6    -0.02   0.01  -0.00     0.00   0.00  -0.00     0.10   0.12  -0.03
  11   1    -0.01   0.00   0.01    -0.11   0.03   0.18     0.01  -0.00  -0.02
  12   1     0.00  -0.00   0.00    -0.06   0.28  -0.21     0.00  -0.04   0.03
  13   1     0.01  -0.00   0.00     0.86  -0.17   0.12    -0.01   0.00  -0.00
  14   1     0.07  -0.03  -0.11     0.00  -0.00  -0.01     0.00  -0.00  -0.00
  15   1    -0.04   0.01  -0.01     0.05  -0.02   0.01     0.00  -0.00   0.00
  16   1    -0.01  -0.01  -0.01     0.01   0.01   0.01     0.00   0.00   0.00
  17   1     0.01  -0.01  -0.02    -0.00  -0.00  -0.00     0.00  -0.00  -0.00
  18   1     0.00   0.02  -0.01    -0.00  -0.00   0.00    -0.00   0.00  -0.00
  19   1    -0.06  -0.09  -0.05     0.04   0.06   0.04     0.00   0.00   0.00
  20   1     0.03   0.05   0.03     0.01   0.01   0.00     0.00   0.00   0.00
  21   1    -0.02  -0.09   0.07     0.00   0.00  -0.00    -0.00  -0.00   0.00
  22   1    -0.00  -0.01   0.01     0.00   0.00  -0.00     0.00   0.00  -0.00
  23   1    -0.07   0.05   0.12    -0.00   0.00   0.00    -0.00   0.00   0.00
  24   1     0.05  -0.03  -0.01    -0.00   0.00  -0.00    -0.00   0.00  -0.00
  25   1    -0.25   0.20   0.50    -0.00   0.00   0.00    -0.00  -0.00   0.00
  26   1     0.03  -0.02  -0.02    -0.00   0.00   0.00    -0.00   0.00   0.01
  27   1    -0.55   0.38  -0.13     0.01  -0.00   0.00     0.01  -0.00   0.00
  28   1    -0.13   0.09  -0.03    -0.00   0.00  -0.00    -0.00   0.00  -0.00
  29   1    -0.02   0.02   0.07     0.00  -0.00  -0.00    -0.00   0.00   0.01
  30   1     0.00  -0.00  -0.02    -0.01   0.01   0.02    -0.18   0.17   0.43
  31   1     0.01   0.01   0.01    -0.01  -0.01  -0.01    -0.51  -0.41  -0.38
  32   1     0.06  -0.04   0.01     0.01  -0.01   0.00     0.33  -0.20   0.07
