      -----------------------------------------------------------      
     |                   =====================                   |     
     |                           x T B                           |     
     |                   =====================                   |     
     |                         S. Grimme                         |     
     |          Mulliken Center for Theoretical Chemistry        |     
     |                    University of Bonn                     |     
      -----------------------------------------------------------      

   * xtb version 6.6.1 (8d0f1dd) compiled by 'stahn@M-Bot' on 2023-08-01

   xtb is free software: you can redistribute it and/or modify it under
   the terms of the GNU Lesser General Public License as published by
   the Free Software Foundation, either version 3 of the License, or
   (at your option) any later version.
   
   xtb is distributed in the hope that it will be useful,
   but WITHOUT ANY WARRANTY; without even the implied warranty of
   MERCHANTABILITY or FITNESS FOR A PARTICULAR PURPOSE.  See the
   GNU Lesser General Public License for more details.
   
   Cite this work as:
   * C. Bannwarth, E. Caldeweyher, S. Ehlert, A. Hansen, P. Pracht,
     J. Seibert, S. Spicher, S. Grimme, WIREs Comput. Mol. Sci., 2020, 11,
     e01493. DOI: 10.1002/wcms.1493
   
   for GFN2-xTB:
   * C. Bannwarth, S. Ehlert and S. Grimme., J. Chem. Theory Comput., 2019,
     15, 1652-1671. DOI: 10.1021/acs.jctc.8b01176
   for GFN1-xTB:
   * S. Grimme, C. Bannwarth, P. Shushkov, J. Chem. Theory Comput., 2017,
     13, 1989-2009. DOI: 10.1021/acs.jctc.7b00118
   for GFN0-xTB:
   * P. Pracht, E. Caldeweyher, S. Ehlert, S. Grimme, ChemRxiv, 2019, preprint.
     DOI: 10.26434/chemrxiv.8326202.v1
   for GFN-FF:
   * S. Spicher and S. Grimme, Angew. Chem. Int. Ed., 2020, 59, 15665-15673.
     DOI: 10.1002/anie.202004239
   
   for ALPB and GBSA implicit solvation:
   * S. Ehlert, M. Stahn, S. Spicher, S. Grimme, J. Chem. Theory Comput.,
     2021, 17, 4250-4261. DOI: 10.1021/acs.jctc.1c00471
   
   for DFT-D4:
   * E. Caldeweyher, C. Bannwarth and S. Grimme, J. Chem. Phys., 2017,
     147, 034112. DOI: 10.1063/1.4993215
   * E. Caldeweyher, S. Ehlert, A. Hansen, H. Neugebauer, S. Spicher,
     C. Bannwarth and S. Grimme, J. Chem. Phys., 2019, 150, 154122.
     DOI: 10.1063/1.5090222
   * E. Caldeweyher, J.-M. Mewes, S. Ehlert and S. Grimme, Phys. Chem. Chem. Phys.
     2020, 22, 8499-8512. DOI: 10.1039/D0CP00502A
   
   for sTDA-xTB:
   * S. Grimme and C. Bannwarth, J. Chem. Phys., 2016, 145, 054103.
     DOI: 10.1063/1.4959605
   
   in the mass-spec context:
   * V. Asgeirsson, C. Bauer and S. Grimme, Chem. Sci., 2017, 8, 4879.
     DOI: 10.1039/c7sc00601b
   * J. Koopman and S. Grimme, ACS Omega 2019, 4, 12, 15120-15133.
     DOI: 10.1021/acsomega.9b02011
   
   for metadynamics refer to:
   * S. Grimme, J. Chem. Theory Comput., 2019, 155, 2847-2862
     DOI: 10.1021/acs.jctc.9b00143
   
   for SPH calculations refer to:
   * S. Spicher and S. Grimme, J. Chem. Theory Comput., 2021, 17, 1701-1714
     DOI: 10.1021/acs.jctc.0c01306
   
   with help from (in alphabetical order)
   P. Atkinson, C. Bannwarth, F. Bohle, G. Brandenburg, E. Caldeweyher
   M. Checinski, S. Dohm, S. Ehlert, S. Ehrlich, I. Gerasimov, C. Hölzer
   A. Katbashev, J. Koopman, C. Lavigne, S. Lehtola, F. März, M. Müller,
   F. Musil, H. Neugebauer, J. Pisarek, C. Plett, P. Pracht, F. Pultar,
   J. Seibert, P. Shushkov, S. Spicher, M. Stahn, M. Steiner, T. Strunk,
   J. Stückrath, T. Rose, and J. Unsleber
   
 * started run on 2024/04/20 at 10:58:19.614     

           -------------------------------------------------
          |                Calculation Setup                |
           -------------------------------------------------

          program call               : xtb folded.xyz --gfn 2 --ohess -P 4
          coordinate file            : folded.xyz
          omp threads                :                     4

   ID    Z sym.   atoms
    1    6 C      1-10
    2    1 H      11-32

           -------------------------------------------------
          |                 G F N 2 - x T B                 |
           -------------------------------------------------

        Reference                      10.1021/acs.jctc.8b01176
      * Hamiltonian:
        H0-scaling (s, p, d)           1.850000    2.230000    2.230000
        zeta-weighting                 0.500000
      * Dispersion:
        s8                             2.700000
        a1                             0.520000
        a2                             5.000000
        s9                             5.000000
      * Repulsion:
        kExp                           1.500000    1.000000
        rExp                           1.000000
      * Coulomb:
        alpha                          2.000000
        third order                    shell-resolved
        anisotropic                    true
        a3                             3.000000
        a5                             4.000000
        cn-shift                       1.200000
        cn-exp                         4.000000
        max-rad                        5.000000


          ...................................................
          :                      SETUP                      :
          :.................................................:
          :  # basis functions                  62          :
          :  # atomic orbitals                  62          :
          :  # shells                           42          :
          :  # electrons                        62          :
          :  max. iterations                   250          :
          :  Hamiltonian                  GFN2-xTB          :
          :  restarted?                      false          :
          :  GBSA solvation                  false          :
          :  PC potential                    false          :
          :  electronic temp.          300.0000000     K    :
          :  accuracy                    1.0000000          :
          :  -> integral cutoff          0.2500000E+02      :
          :  -> integral neglect         0.1000000E-07      :
          :  -> SCF convergence          0.1000000E-05 Eh   :
          :  -> wf. convergence          0.1000000E-03 e    :
          :  Broyden damping             0.4000000          :
          ...................................................

 iter      E             dE          RMSdq      gap      omega  full diag
   1    -33.0357834 -0.330358E+02  0.243E+00   13.00       0.0  T
   2    -33.1211832 -0.853999E-01  0.126E+00   12.71       1.0  T
   3    -33.1221363 -0.953116E-03  0.679E-01   12.68       1.0  T
   4    -33.1223915 -0.255202E-03  0.847E-02   12.69       1.0  T
   5    -33.1224015 -0.994807E-05  0.441E-02   12.69       1.0  T
   6    -33.1224035 -0.202084E-05  0.428E-03   12.69       4.1  T
   7    -33.1224036 -0.921769E-07  0.157E-03   12.69      11.2  T
   8    -33.1224036 -0.117269E-07  0.290E-04   12.69      61.1  T
   9    -33.1224036 -0.233484E-09  0.131E-04   12.69     134.7  T

   *** convergence criteria satisfied after 9 iterations ***

         #    Occupation            Energy/Eh            Energy/eV
      -------------------------------------------------------------
         1        2.0000           -0.6220694             -16.9274
       ...           ...                  ...                  ...
        25        2.0000           -0.4301504             -11.7050
        26        2.0000           -0.4279250             -11.6444
        27        2.0000           -0.4230798             -11.5126
        28        2.0000           -0.4197766             -11.4227
        29        2.0000           -0.4160960             -11.3225
        30        2.0000           -0.4104222             -11.1682
        31        2.0000           -0.4069272             -11.0731 (HOMO)
        32                          0.0594349               1.6173 (LUMO)
        33                          0.0709041               1.9294
        34                          0.0850706               2.3149
        35                          0.0921875               2.5085
        36                          0.1045269               2.8443
       ...                                ...                  ...
        62                          0.3210445               8.7361
      -------------------------------------------------------------
                  HL-Gap            0.4663621 Eh           12.6904 eV
             Fermi-level           -0.1737461 Eh           -4.7279 eV

 SCC (total)                   0 d,  0 h,  0 min,  0.043 sec
 SCC setup                      ...        0 min,  0.000 sec (  0.891%)
 Dispersion                     ...        0 min,  0.000 sec (  0.524%)
 classical contributions        ...        0 min,  0.001 sec (  1.911%)
 integral evaluation            ...        0 min,  0.001 sec (  2.463%)
 iterations                     ...        0 min,  0.017 sec ( 38.579%)
 molecular gradient             ...        0 min,  0.024 sec ( 54.568%)
 printout                       ...        0 min,  0.000 sec (  0.991%)

         :::::::::::::::::::::::::::::::::::::::::::::::::::::
         ::                     SUMMARY                     ::
         :::::::::::::::::::::::::::::::::::::::::::::::::::::
         :: total energy             -32.645975426250 Eh    ::
         :: gradient norm              0.028879022978 Eh/a0 ::
         :: HOMO-LUMO gap             12.690359716525 eV    ::
         ::.................................................::
         :: SCC energy               -33.122403603737 Eh    ::
         :: -> isotropic ES            0.005284864343 Eh    ::
         :: -> anisotropic ES          0.011201473547 Eh    ::
         :: -> anisotropic XC          0.019627632891 Eh    ::
         :: -> dispersion             -0.021646007053 Eh    ::
         :: repulsion energy           0.476131305827 Eh    ::
         :: add. restraining           0.000000000000 Eh    ::
         :: total charge               0.000000000000 e     ::
         :::::::::::::::::::::::::::::::::::::::::::::::::::::

      ----------------------------------------------------------- 
     |                   =====================                   |
     |                        A N C O P T                        |
     |                   =====================                   |
     |               Approximate Normal Coordinate               |
     |                Rational Function Optimizer                |
      ----------------------------------------------------------- 

          ...................................................
          :                      SETUP                      :
          :.................................................:
          :   optimization level            normal          :
          :   max. optcycles                   200          :
          :   ANC micro-cycles                  20          :
          :   degrees of freedom                90          :
          :.................................................:
          :   RF solver                   davidson          :
          :   write xtbopt.log                true          :
          :   linear?                        false          :
          :   energy convergence         0.5000000E-05 Eh   :
          :   grad. convergence          0.1000000E-02 Eh/α :
          :   maxmium RF displ.          2.0000000          :
          :   Hlow (freq-cutoff)         0.2000000E-01      :
          :   Hmax (freq-cutoff)         5.0000000          :
          :   S6 in model hess.         70.0000000          :
          ...................................................

generating ANC from model Hessian ...
Using Lindh-Hessian (1995)
 Shifting diagonal of input Hessian by   1.921159525864953E-002
 Lowest  eigenvalues of input Hessian
    0.000000    0.000000    0.000000    0.000000    0.000000    0.000000
    0.020000    0.020697    0.022181    0.023429    0.024389    0.025043
    0.026334    0.029196    0.030753    0.031796    0.033184    0.034198
 Highest eigenvalues
    1.215122    1.234767    1.249688    1.277119    1.297253    1.316289
 

........................................................................
.............................. CYCLE    1 ..............................
........................................................................

 iter      E             dE          RMSdq      gap      omega  full diag
   1    -33.1224036 -0.331224E+02  0.215E-05   12.69       0.0  T
   2    -33.1224036 -0.134293E-11  0.121E-05   12.69    1459.1  T
   3    -33.1224036 -0.426326E-13  0.428E-06   12.69    4131.5  T
     SCC iter.                  ...        0 min,  0.004 sec
     gradient                   ...        0 min,  0.003 sec
 * total energy  :   -32.6459754 Eh     change       -0.1990941E-10 Eh
   gradient norm :     0.0288787 Eh/α   predicted     0.0000000E+00 (-100.00%)
   displ. norm   :     0.1678203 α      lambda       -0.2788871E-02
   maximum displ.:     0.0939019 α      in ANC's #40, #26, #30, ...

........................................................................
.............................. CYCLE    2 ..............................
........................................................................

 iter      E             dE          RMSdq      gap      omega  full diag
   1    -33.1324250 -0.331324E+02  0.136E-01   12.86       0.0  T
   2    -33.1324294 -0.440362E-05  0.784E-02   12.87       1.0  T
   3    -33.1324300 -0.617860E-06  0.393E-03   12.87       4.5  T
   4    -33.1324301 -0.467397E-07  0.125E-03   12.87      14.2  T
   5    -33.1324301 -0.210771E-08  0.645E-04   12.87      27.4  T
   6    -33.1324301 -0.486665E-09  0.768E-05   12.87     230.1  T
     SCC iter.                  ...        0 min,  0.007 sec
     gradient                   ...        0 min,  0.004 sec
 * total energy  :   -32.6478098 Eh     change       -0.1834410E-02 Eh
   gradient norm :     0.0125765 Eh/α   predicted    -0.1433711E-02 ( -21.84%)
   displ. norm   :     0.0837761 α      lambda       -0.4922607E-03
   maximum displ.:     0.0415061 α      in ANC's #40, #26, #15, ...

........................................................................
.............................. CYCLE    3 ..............................
........................................................................

 iter      E             dE          RMSdq      gap      omega  full diag
   1    -33.1387015 -0.331387E+02  0.621E-02   12.94       0.0  T
   2    -33.1387040 -0.250438E-05  0.352E-02   12.94       1.0  T
   3    -33.1387041 -0.115178E-06  0.361E-03   12.94       4.9  T
   4    -33.1387041 -0.187401E-07  0.635E-04   12.94      27.8  T
   5    -33.1387041 -0.118378E-08  0.361E-04   12.94      49.0  T
     SCC iter.                  ...        0 min,  0.005 sec
     gradient                   ...        0 min,  0.005 sec
 * total energy  :   -32.6480757 Eh     change       -0.2658297E-03 Eh
   gradient norm :     0.0022736 Eh/α   predicted    -0.2478738E-03 (  -6.75%)
   displ. norm   :     0.0251454 α      lambda       -0.2003938E-04
   maximum displ.:     0.0137337 α      in ANC's #8, #1, #7, ...

........................................................................
.............................. CYCLE    4 ..............................
........................................................................

 iter      E             dE          RMSdq      gap      omega  full diag
   1    -33.1393945 -0.331394E+02  0.579E-03   12.94       0.0  T
   2    -33.1393945 -0.761956E-07  0.332E-03   12.95       5.3  T
   3    -33.1393945 -0.216477E-08  0.783E-04   12.95      22.6  T
   4    -33.1393945 -0.571475E-09  0.137E-04   12.94     129.4  T
     SCC iter.                  ...        0 min,  0.005 sec
     gradient                   ...        0 min,  0.004 sec
 * total energy  :   -32.6480926 Eh     change       -0.1693856E-04 Eh
   gradient norm :     0.0006867 Eh/α   predicted    -0.1081152E-04 ( -36.17%)
   displ. norm   :     0.0871363 α      lambda       -0.2990970E-04
   maximum displ.:     0.0506076 α      in ANC's #8, #1, #7, ...

........................................................................
.............................. CYCLE    5 ..............................
........................................................................

 iter      E             dE          RMSdq      gap      omega  full diag
   1    -33.1398662 -0.331399E+02  0.135E-02   12.95       0.0  T
   2    -33.1398664 -0.194220E-06  0.798E-03   12.95       2.2  T
   3    -33.1398664 -0.172773E-07  0.115E-03   12.95      15.4  T
   4    -33.1398664 -0.520895E-08  0.385E-04   12.95      45.9  T
   5    -33.1398664 -0.712888E-09  0.116E-04   12.95     152.3  T
     SCC iter.                  ...        0 min,  0.007 sec
     gradient                   ...        0 min,  0.004 sec
 * total energy  :   -32.6481151 Eh     change       -0.2252011E-04 Eh
   gradient norm :     0.0028245 Eh/α   predicted    -0.1503876E-04 ( -33.22%)
   displ. norm   :     0.0230786 α      lambda       -0.9882733E-05
   maximum displ.:     0.0130359 α      in ANC's #8, #1, #7, ...

........................................................................
.............................. CYCLE    6 ..............................
........................................................................

 iter      E             dE          RMSdq      gap      omega  full diag
   1    -33.1394983 -0.331395E+02  0.380E-03   12.95       0.0  T
   2    -33.1394983 -0.229390E-07  0.221E-03   12.95       8.0  T
   3    -33.1394983 -0.603833E-09  0.409E-04   12.95      43.3  T
   4    -33.1394983 -0.151005E-09  0.687E-05   12.95     257.5  T
     SCC iter.                  ...        0 min,  0.006 sec
     gradient                   ...        0 min,  0.011 sec
 * total energy  :   -32.6481238 Eh     change       -0.8702471E-05 Eh
   gradient norm :     0.0018800 Eh/α   predicted    -0.4951261E-05 ( -43.11%)
   displ. norm   :     0.1389687 α      lambda       -0.2960925E-04
   maximum displ.:     0.0797583 α      in ANC's #1, #8, #7, ...

........................................................................
.............................. CYCLE    7 ..............................
........................................................................

 iter      E             dE          RMSdq      gap      omega  full diag
   1    -33.1379294 -0.331379E+02  0.212E-02   12.95       0.0  T
   2    -33.1379299 -0.455495E-06  0.125E-02   12.95       1.4  T
   3    -33.1379299 -0.146352E-07  0.162E-03   12.95      10.9  T
   4    -33.1379299 -0.334723E-08  0.335E-04   12.95      52.8  T
   5    -33.1379299 -0.477669E-09  0.148E-04   12.95     119.3  T
     SCC iter.                  ...        0 min,  0.035 sec
     gradient                   ...        0 min,  0.014 sec
 * total energy  :   -32.6481405 Eh     change       -0.1670894E-04 Eh
   gradient norm :     0.0025617 Eh/α   predicted    -0.1493212E-04 ( -10.63%)
   displ. norm   :     0.0103322 α      lambda       -0.7081844E-05
   maximum displ.:     0.0076797 α      in ANC's #9, #8, #1, ...

........................................................................
.............................. CYCLE    8 ..............................
........................................................................

 iter      E             dE          RMSdq      gap      omega  full diag
   1    -33.1383492 -0.331383E+02  0.255E-03   12.95       0.0  T
   2    -33.1383492 -0.203705E-07  0.143E-03   12.95      12.3  T
   3    -33.1383492 -0.449838E-09  0.407E-04   12.95      43.5  T
   4    -33.1383492 -0.497522E-10  0.554E-05   12.95     319.2  T
     SCC iter.                  ...        0 min,  0.019 sec
     gradient                   ...        0 min,  0.020 sec
 * total energy  :   -32.6481468 Eh     change       -0.6287754E-05 Eh
   gradient norm :     0.0017318 Eh/α   predicted    -0.3566367E-05 ( -43.28%)
   displ. norm   :     0.1051595 α      lambda       -0.2635954E-04
   maximum displ.:     0.0677035 α      in ANC's #1, #9, #3, ...

........................................................................
.............................. CYCLE    9 ..............................
........................................................................

 iter      E             dE          RMSdq      gap      omega  full diag
   1    -33.1399421 -0.331399E+02  0.191E-02   12.95       0.0  T
   2    -33.1399425 -0.375863E-06  0.112E-02   12.95       1.6  T
   3    -33.1399425 -0.103283E-07  0.146E-03   12.95      12.1  T
   4    -33.1399425 -0.284299E-08  0.281E-04   12.95      62.9  T
   5    -33.1399425 -0.372005E-09  0.132E-04   12.95     133.6  T
     SCC iter.                  ...        0 min,  0.015 sec
     gradient                   ...        0 min,  0.007 sec
 * total energy  :   -32.6481651 Eh     change       -0.1830342E-04 Eh
   gradient norm :     0.0021586 Eh/α   predicted    -0.1324558E-04 ( -27.63%)
   displ. norm   :     0.0477322 α      lambda       -0.7701888E-05
   maximum displ.:     0.0335060 α      in ANC's #1, #7, #3, ...

........................................................................
.............................. CYCLE   10 ..............................
........................................................................

 iter      E             dE          RMSdq      gap      omega  full diag
   1    -33.1396148 -0.331396E+02  0.685E-03   12.95       0.0  T
   2    -33.1396148 -0.142345E-07  0.407E-03   12.95       4.3  T
   3    -33.1396148 -0.104509E-08  0.217E-04   12.95      81.5  T
   4    -33.1396148 -0.791047E-10  0.811E-05   12.95     217.9  T
     SCC iter.                  ...        0 min,  0.028 sec
     gradient                   ...        0 min,  0.009 sec
 * total energy  :   -32.6481718 Eh     change       -0.6721900E-05 Eh
   gradient norm :     0.0015107 Eh/α   predicted    -0.3860790E-05 ( -42.56%)
   displ. norm   :     0.2352535 α      lambda       -0.1929575E-04
   maximum displ.:     0.1725235 α      in ANC's #1, #3, #7, ...

........................................................................
.............................. CYCLE   11 ..............................
........................................................................

 iter      E             dE          RMSdq      gap      omega  full diag
   1    -33.1380848 -0.331381E+02  0.331E-02   12.95       0.0  T
   2    -33.1380851 -0.302747E-06  0.197E-02   12.95       1.0  T
   3    -33.1380851 -0.240825E-07  0.992E-04   12.95      17.8  T
   4    -33.1380851 -0.179359E-08  0.394E-04   12.95      44.9  T
     SCC iter.                  ...        0 min,  0.009 sec
     gradient                   ...        0 min,  0.004 sec
 * total energy  :   -32.6481795 Eh     change       -0.7700483E-05 Eh
   gradient norm :     0.0017711 Eh/α   predicted    -0.9887891E-05 (  28.41%)
   displ. norm   :     0.0603013 α      lambda       -0.7209310E-05
   maximum displ.:     0.0354979 α      in ANC's #1, #8, #7, ...

........................................................................
.............................. CYCLE   12 ..............................
........................................................................

 iter      E             dE          RMSdq      gap      omega  full diag
   1    -33.1389794 -0.331390E+02  0.992E-03   12.95       0.0  T
   2    -33.1389795 -0.806109E-07  0.581E-03   12.95       3.0  T
   3    -33.1389795 -0.391217E-08  0.750E-04   12.95      23.6  T
   4    -33.1389795 -0.981586E-09  0.185E-04   12.95      95.5  T
     SCC iter.                  ...        0 min,  0.004 sec
     gradient                   ...        0 min,  0.004 sec
 * total energy  :   -32.6481858 Eh     change       -0.6212939E-05 Eh
   gradient norm :     0.0006072 Eh/α   predicted    -0.3612772E-05 ( -41.85%)
   displ. norm   :     0.0246448 α      lambda       -0.3384415E-05
   maximum displ.:     0.0187042 α      in ANC's #1, #8, #11, ...

........................................................................
.............................. CYCLE   13 ..............................
........................................................................

 iter      E             dE          RMSdq      gap      omega  full diag
   1    -33.1393070 -0.331393E+02  0.406E-03   12.96       0.0  T
   2    -33.1393070 -0.117583E-07  0.237E-03   12.96       7.5  T
   3    -33.1393070 -0.372708E-09  0.246E-04   12.96      72.0  T
   4    -33.1393070 -0.897984E-10  0.534E-05   12.96     331.2  T
     SCC iter.                  ...        0 min,  0.004 sec
     gradient                   ...        0 min,  0.003 sec
 * total energy  :   -32.6481901 Eh     change       -0.4370235E-05 Eh
   gradient norm :     0.0003956 Eh/α   predicted    -0.1693831E-05 ( -61.24%)
   displ. norm   :     0.0614270 α      lambda       -0.6995051E-05
   maximum displ.:     0.0367152 α      in ANC's #8, #1, #7, ...

   *** GEOMETRY OPTIMIZATION CONVERGED AFTER 13 ITERATIONS ***

------------------------------------------------------------------------
 total energy gain   :        -0.0022147 Eh       -1.3897 kcal/mol
 total RMSD          :         0.1152964 a0        0.0610 Å
 total power (kW/mol):        -0.4472854 (step)  -14.6067 (real)
------------------------------------------------------------------------

 ANCopt (total)                0 d,  0 h,  0 min,  0.398 sec
 optimizer setup                ...        0 min,  0.001 sec (  0.289%)
 model hessian                  ...        0 min,  0.023 sec (  5.813%)
 ANC generation                 ...        0 min,  0.002 sec (  0.443%)
 coordinate transformation      ...        0 min,  0.000 sec (  0.067%)
 single point calculation       ...        0 min,  0.348 sec ( 87.381%)
 optimization log               ...        0 min,  0.002 sec (  0.443%)
 hessian update                 ...        0 min,  0.012 sec (  2.973%)
 rational function              ...        0 min,  0.003 sec (  0.815%)

================
 final structure:
================
32
 xtb: 6.6.1 (8d0f1dd)
C            2.22721004086483       -2.01801548299052       -0.00489325161099
C            2.90128673970205       -0.82282784748547        0.65960069884292
C            2.95259190027737        0.41756765545133       -0.23504492208632
C            1.58580539754512        0.95903929669530       -0.65657599474999
C            0.76417688267104        1.49141245105927        0.51486883274945
C           -0.56135408429658        2.12115919761997        0.08287100886839
C           -1.53130709835705        1.16278352517380       -0.61174635213521
C           -1.93848089335881       -0.02768682652004        0.25328270719029
C           -2.97735500651244       -0.90604905555007       -0.43976023520990
C           -3.36138959136834       -2.10913935905767        0.41311411110502
H            2.68300483731529       -2.22340513982979       -0.97107662925266
H            2.33037446023738       -2.90367822925620        0.61799593534739
H            1.16662620455796       -1.83665921471729       -0.15726124468583
H            2.38577588382538       -0.58620789352175        1.59188630668498
H            3.92749848264093       -1.09636061055454        0.91780808468113
H            3.49799613370591        1.20462849934561        0.29217547548858
H            3.52051949307935        0.17112340099139       -1.13608530156068
H            1.74201855878329        1.77112944721404       -1.37168974893480
H            1.03399598845252        0.17319941375444       -1.17109570611561
H            1.35094368535685        2.25135052156872        1.03807683146048
H            0.56498719369883        0.68922313608114        1.22508905710585
H           -0.35260641956156        2.95268120488362       -0.59536062319591
H           -1.05215850705562        2.53446044661955        0.96793570892973
H           -2.43026770700320        1.72397362521491       -0.88073458758086
H           -1.08924352840214        0.79983770832688       -1.54143707690099
H           -2.34496272460026        0.33533927060846        1.20041635170539
H           -1.06268308606185       -0.63782618398548        0.48026586922381
H           -3.86937191417735       -0.31292318025638       -0.65423561598057
H           -2.57498361345757       -1.25278041251647       -1.39480156451289
H           -3.79029323404823       -1.78484462616239        1.35890614043593
H           -4.09332728147285       -2.72724002509879       -0.10172820763967
H           -2.48670219298015       -2.72008771310555        0.62700294233352
           -------------------------------------------------
          |                Final Singlepoint                |
           -------------------------------------------------

          ...................................................
          :                      SETUP                      :
          :.................................................:
          :  # basis functions                  62          :
          :  # atomic orbitals                  62          :
          :  # shells                           42          :
          :  # electrons                        62          :
          :  max. iterations                   250          :
          :  Hamiltonian                  GFN2-xTB          :
          :  restarted?                      false          :
          :  GBSA solvation                  false          :
          :  PC potential                    false          :
          :  electronic temp.          300.0000000     K    :
          :  accuracy                    1.0000000          :
          :  -> integral cutoff          0.2500000E+02      :
          :  -> integral neglect         0.1000000E-07      :
          :  -> SCF convergence          0.1000000E-05 Eh   :
          :  -> wf. convergence          0.1000000E-03 e    :
          :  Broyden damping             0.4000000          :
          ...................................................

 iter      E             dE          RMSdq      gap      omega  full diag
   1    -33.1393070 -0.331393E+02  0.269E-05   12.96       0.0  T
   2    -33.1393070 -0.866862E-12  0.154E-05   12.96    1149.8  T
   3    -33.1393070 -0.284217E-13  0.321E-06   12.96    5505.9  T

   *** convergence criteria satisfied after 3 iterations ***

         #    Occupation            Energy/Eh            Energy/eV
      -------------------------------------------------------------
         1        2.0000           -0.6228919             -16.9498
       ...           ...                  ...                  ...
        25        2.0000           -0.4308333             -11.7236
        26        2.0000           -0.4273420             -11.6286
        27        2.0000           -0.4218289             -11.4785
        28        2.0000           -0.4201017             -11.4315
        29        2.0000           -0.4150860             -11.2951
        30        2.0000           -0.4107583             -11.1773
        31        2.0000           -0.4089390             -11.1278 (HOMO)
        32                          0.0671704               1.8278 (LUMO)
        33                          0.0783335               2.1316
        34                          0.0950740               2.5871
        35                          0.1010856               2.7507
        36                          0.1100366               2.9942
       ...                                ...                  ...
        62                          0.3317872               9.0284
      -------------------------------------------------------------
                  HL-Gap            0.4761094 Eh           12.9556 eV
             Fermi-level           -0.1708843 Eh           -4.6500 eV

 SCC (total)                   0 d,  0 h,  0 min,  0.010 sec
 SCC setup                      ...        0 min,  0.001 sec (  7.096%)
 Dispersion                     ...        0 min,  0.000 sec (  1.091%)
 classical contributions        ...        0 min,  0.000 sec (  0.270%)
 integral evaluation            ...        0 min,  0.001 sec (  9.177%)
 iterations                     ...        0 min,  0.003 sec ( 36.066%)
 molecular gradient             ...        0 min,  0.003 sec ( 33.953%)
 printout                       ...        0 min,  0.001 sec ( 12.056%)

         :::::::::::::::::::::::::::::::::::::::::::::::::::::
         ::                     SUMMARY                     ::
         :::::::::::::::::::::::::::::::::::::::::::::::::::::
         :: total energy             -32.648190132524 Eh    ::
         :: gradient norm              0.000395563247 Eh/a0 ::
         :: HOMO-LUMO gap             12.955596048361 eV    ::
         ::.................................................::
         :: SCC energy               -33.139306995288 Eh    ::
         :: -> isotropic ES            0.005646139285 Eh    ::
         :: -> anisotropic ES          0.010708277978 Eh    ::
         :: -> anisotropic XC          0.019790001148 Eh    ::
         :: -> dispersion             -0.021585121470 Eh    ::
         :: repulsion energy           0.490829782871 Eh    ::
         :: add. restraining           0.000000000000 Eh    ::
         :: total charge              -0.000000000000 e     ::
         :::::::::::::::::::::::::::::::::::::::::::::::::::::

           ------------------------------------------------- 
          |                Numerical Hessian                |
           ------------------------------------------------- 
step length          :   0.00500
SCC accuracy         :   0.30000
Hessian scale factor :   1.00000
frozen atoms in %    :   0.00000    0
RMS gradient         :   0.00040
estimated CPU  time      0.21 min
estimated wall time      0.05 min

writing file <hessian>.

 projected vibrational frequencies (cm⁻¹)
eigval :       -0.00     0.00     0.00     0.00     0.00     0.00
eigval :       20.15    29.62    50.56    64.91   105.82   140.12
eigval :      161.02   202.93   232.90   244.10   256.51   273.81
eigval :      327.86   398.51   401.36   462.47   517.07   749.24
eigval :      771.64   793.19   826.66   855.89   871.28   903.44
eigval :      931.02   948.80   960.21  1010.33  1019.05  1044.57
eigval :     1065.47  1085.17  1092.23  1113.51  1139.10  1147.38
eigval :     1156.66  1157.91  1176.64  1215.83  1233.02  1254.34
eigval :     1271.54  1276.52  1286.03  1289.15  1291.82  1315.02
eigval :     1349.03  1352.94  1359.57  1364.71  1375.56  1377.76
eigval :     1414.62  1416.89  1487.70  1490.15  1492.17  1497.61
eigval :     1498.85  1501.35  1503.17  1505.36  1505.84  1507.27
eigval :     1508.18  1517.78  2954.45  2955.38  2956.27  2958.42
eigval :     2959.59  2961.70  2964.72  2971.43  2975.03  2976.73
eigval :     2977.64  2987.10  2989.82  2991.63  3007.39  3011.34
eigval :     3028.24  3031.51  3032.09  3034.27  3037.32  3045.74
           -------------------------------------------------
          |                Property Printout                |
           -------------------------------------------------

    * Orbital Energies and Occupations

         #    Occupation            Energy/Eh            Energy/eV
      -------------------------------------------------------------
         1        2.0000           -0.6228919             -16.9498
       ...           ...                  ...                  ...
        19        2.0000           -0.4658785             -12.6772
        20        2.0000           -0.4621774             -12.5765
        21        2.0000           -0.4606061             -12.5337
        22        2.0000           -0.4465217             -12.1505
        23        2.0000           -0.4422493             -12.0342
        24        2.0000           -0.4375679             -11.9068
        25        2.0000           -0.4308333             -11.7236
        26        2.0000           -0.4273420             -11.6286
        27        2.0000           -0.4218289             -11.4785
        28        2.0000           -0.4201017             -11.4315
        29        2.0000           -0.4150860             -11.2951
        30        2.0000           -0.4107583             -11.1773
        31        2.0000           -0.4089390             -11.1278 (HOMO)
        32                          0.0671704               1.8278 (LUMO)
        33                          0.0783335               2.1316
        34                          0.0950740               2.5871
        35                          0.1010857               2.7507
        36                          0.1100366               2.9942
        37                          0.1187301               3.2308
        38                          0.1224840               3.3330
        39                          0.1330183               3.6196
        40                          0.1425678               3.8795
        41                          0.1487358               4.0473
        42                          0.1524595               4.1486
       ...                                ...                  ...
        62                          0.3317872               9.0284
      -------------------------------------------------------------
                  HL-Gap            0.4761094 Eh           12.9556 eV
             Fermi-level           -0.1708843 Eh           -4.6500 eV

     #   Z          covCN         q      C6AA      α(0)
     1   6 C        3.751    -0.099    22.461     6.759
     2   6 C        3.799    -0.052    21.506     6.603
     3   6 C        3.801    -0.057    21.607     6.618
     4   6 C        3.801    -0.058    21.619     6.620
     5   6 C        3.801    -0.058    21.614     6.619
     6   6 C        3.801    -0.057    21.604     6.618
     7   6 C        3.801    -0.057    21.606     6.618
     8   6 C        3.803    -0.058    21.612     6.619
     9   6 C        3.801    -0.053    21.517     6.604
    10   6 C        3.752    -0.101    22.498     6.764
    11   1 H        0.925     0.032     2.555     2.500
    12   1 H        0.925     0.029     2.601     2.522
    13   1 H        0.925     0.035     2.518     2.481
    14   1 H        0.924     0.030     2.589     2.516
    15   1 H        0.924     0.025     2.651     2.546
    16   1 H        0.924     0.026     2.647     2.544
    17   1 H        0.924     0.028     2.618     2.530
    18   1 H        0.924     0.025     2.652     2.547
    19   1 H        0.925     0.038     2.478     2.462
    20   1 H        0.924     0.026     2.649     2.545
    21   1 H        0.925     0.035     2.519     2.482
    22   1 H        0.924     0.027     2.629     2.536
    23   1 H        0.924     0.027     2.626     2.534
    24   1 H        0.924     0.026     2.646     2.544
    25   1 H        0.924     0.030     2.589     2.516
    26   1 H        0.924     0.029     2.606     2.524
    27   1 H        0.924     0.033     2.547     2.496
    28   1 H        0.924     0.027     2.631     2.537
    29   1 H        0.924     0.027     2.632     2.537
    30   1 H        0.925     0.033     2.547     2.496
    31   1 H        0.925     0.032     2.561     2.502
    32   1 H        0.925     0.033     2.549     2.497

 Mol. C6AA /au·bohr⁶  :       6715.129106
 Mol. C8AA /au·bohr⁸  :     139515.988947
 Mol. α(0) /au        :        121.836296


Wiberg/Mayer (AO) data.
largest (>0.10) Wiberg bond orders for each atom

 ---------------------------------------------------------------------------
     #   Z sym  total        # sym  WBO       # sym  WBO       # sym  WBO
 ---------------------------------------------------------------------------
     1   6 C    3.997 --     2 C    1.020    11 H    0.988    12 H    0.988
                            13 H    0.985
     2   6 C    3.998 --     1 C    1.020     3 C    1.008    15 H    0.979
                            14 H    0.976
     3   6 C    3.998 --     2 C    1.008     4 C    1.007    17 H    0.978
                            16 H    0.978
     4   6 C    3.997 --     5 C    1.009     3 C    1.007    18 H    0.977
                            19 H    0.972
     5   6 C    3.998 --     4 C    1.009     6 C    1.007    20 H    0.977
                            21 H    0.972
     6   6 C    3.997 --     5 C    1.007     7 C    1.007    23 H    0.978
                            22 H    0.977
     7   6 C    3.998 --     8 C    1.008     6 C    1.007    24 H    0.977
                            25 H    0.975
     8   6 C    3.998 --     7 C    1.008     9 C    1.008    26 H    0.978
                            27 H    0.973
     9   6 C    3.998 --    10 C    1.019     8 C    1.008    29 H    0.979
                            28 H    0.979
    10   6 C    3.997 --     9 C    1.019    30 H    0.988    32 H    0.988
                            31 H    0.988
    11   1 H    0.999 --     1 C    0.988
    12   1 H    0.999 --     1 C    0.988
    13   1 H    0.999 --     1 C    0.985
    14   1 H    0.999 --     2 C    0.976
    15   1 H    0.999 --     2 C    0.979
    16   1 H    0.999 --     3 C    0.978
    17   1 H    0.999 --     3 C    0.978
    18   1 H    0.999 --     4 C    0.977
    19   1 H    0.999 --     4 C    0.972
    20   1 H    0.999 --     5 C    0.977
    21   1 H    0.999 --     5 C    0.972
    22   1 H    0.999 --     6 C    0.977
    23   1 H    0.999 --     6 C    0.978
    24   1 H    0.999 --     7 C    0.977
    25   1 H    0.999 --     7 C    0.975
    26   1 H    0.999 --     8 C    0.978
    27   1 H    0.999 --     8 C    0.973
    28   1 H    0.999 --     9 C    0.979
    29   1 H    0.999 --     9 C    0.979
    30   1 H    0.999 --    10 C    0.988
    31   1 H    0.999 --    10 C    0.988
    32   1 H    0.999 --    10 C    0.988
 ---------------------------------------------------------------------------

Topologies differ in total number of bonds
Writing topology from bond orders to xtbtopo.mol

molecular dipole:
                 x           y           z       tot (Debye)
 q only:       -0.002      -0.026       0.003
   full:       -0.003      -0.019       0.002       0.048
molecular quadrupole (traceless):
                xx          xy          yy          xz          yz          zz
 q only:       -0.310       0.118       0.065      -0.013      -0.042       0.245
  q+dip:       -0.175      -0.679      -0.589      -0.637       0.420       0.764
   full:       -0.138      -0.314      -0.263      -0.324       0.189       0.401

           -------------------------------------------------
          |                Geometry Summary                 |
           -------------------------------------------------

      molecular mass/u    :      142.2820555
   center of mass at/Å    :       -0.0015145      -0.0019739       0.0003733
  moments of inertia/u·Å² :        0.3380685E+03   0.8144505E+03   0.1063693E+04
rotational constants/cm⁻¹ :        0.4986454E-01   0.2069817E-01   0.1584822E-01

 * 31 selected distances

     #   Z          #   Z                                           value/Å
     1   6 C        2   6 C                                       1.5246001
     2   6 C        3   6 C                                       1.5302302
     3   6 C        4   6 C                                       1.5293743
     4   6 C        5   6 C                                       1.5266886
     5   6 C        6   6 C                                       1.5297829
     6   6 C        7   6 C                                       1.5302897 (max)
     7   6 C        8   6 C                                       1.5268549
     8   6 C        9   6 C                                       1.5267903
     9   6 C       10   6 C                                       1.5239107
     1   6 C       11   1 H                                       1.0878623
     1   6 C       12   1 H                                       1.0876730
     1   6 C       13   1 H                                       1.0867127 (min)
     2   6 C       14   1 H                                       1.0912823
     2   6 C       15   1 H                                       1.0929785
     3   6 C       16   1 H                                       1.0931112
     3   6 C       17   1 H                                       1.0932294
     4   6 C       18   1 H                                       1.0932890
     4   6 C       19   1 H                                       1.0893891
     5   6 C       20   1 H                                       1.0934112
     5   6 C       21   1 H                                       1.0897693
     6   6 C       22   1 H                                       1.0931618
     6   6 C       23   1 H                                       1.0931819
     7   6 C       24   1 H                                       1.0933524
     7   6 C       25   1 H                                       1.0915470
     8   6 C       26   1 H                                       1.0927387
     8   6 C       27   1 H                                       1.0912440
     9   6 C       28   1 H                                       1.0924708
     9   6 C       29   1 H                                       1.0928081
    10   6 C       30   1 H                                       1.0879560
    10   6 C       31   1 H                                       1.0875863
    10   6 C       32   1 H                                       1.0881565

 * 2 distinct bonds (by element types)

   Z      Z             #   av. dist./Å        max./Å        min./Å
   1 H    6 C          22     1.0910414     1.0934112     1.0867127
   6 C    6 C           9     1.5276135     1.5302897     1.5239107

           -------------------------------------------------
          |               Frequency Printout                |
           -------------------------------------------------
 projected vibrational frequencies (cm⁻¹)
eigval :       -0.00     0.00     0.00     0.00     0.00     0.00
eigval :       20.15    29.62    50.56    64.91   105.82   140.12
eigval :      161.02   202.93   232.90   244.10   256.51   273.81
eigval :      327.86   398.51   401.36   462.47   517.07   749.24
eigval :      771.64   793.19   826.66   855.89   871.28   903.44
eigval :      931.02   948.80   960.21  1010.33  1019.05  1044.57
eigval :     1065.47  1085.17  1092.23  1113.51  1139.10  1147.38
eigval :     1156.66  1157.91  1176.64  1215.83  1233.02  1254.34
eigval :     1271.54  1276.52  1286.03  1289.15  1291.82  1315.02
eigval :     1349.03  1352.94  1359.57  1364.71  1375.56  1377.76
eigval :     1414.62  1416.89  1487.70  1490.15  1492.17  1497.61
eigval :     1498.85  1501.35  1503.17  1505.36  1505.84  1507.27
eigval :     1508.18  1517.78  2954.45  2955.38  2956.27  2958.42
eigval :     2959.59  2961.70  2964.72  2971.43  2975.03  2976.73
eigval :     2977.64  2987.10  2989.82  2991.63  3007.39  3011.34
eigval :     3028.24  3031.51  3032.09  3034.27  3037.32  3045.74
 reduced masses (amu)
   1: 10.11   2: 10.04   3: 10.13   4:  9.97   5:  9.98   6:  9.39   7:  8.87   8:  8.81
   9:  7.50  10:  6.14  11:  8.09  12:  6.23  13:  6.52  14:  6.63  15:  3.10  16:  6.51
  17:  7.61  18:  5.77  19:  7.21  20:  7.57  21:  8.74  22:  8.20  23:  8.02  24:  2.57
  25:  2.19  26:  2.66  27:  4.16  28:  4.71  29:  4.98  30:  6.33  31:  6.53  32:  6.11
  33:  4.15  34:  5.19  35:  5.99  36:  5.64  37:  7.00  38:  4.64  39:  5.98  40:  7.36
  41:  8.04  42:  7.82  43:  7.23  44:  7.23  45:  5.54  46:  5.18  47:  4.15  48:  3.41
  49:  3.05  50:  3.29  51:  1.78  52:  2.24  53:  2.47  54:  3.46  55:  4.32  56:  4.38
  57:  4.63  58:  4.70  59:  5.21  60:  5.46  61:  3.23  62:  3.18  63:  1.84  64:  1.90
  65:  1.97  66:  1.88  67:  1.84  68:  1.77  69:  1.87  70:  1.63  71:  1.78  72:  1.74
  73:  1.68  74:  1.67  75:  1.89  76:  1.93  77:  1.87  78:  1.87  79:  1.87  80:  1.77
  81:  1.84  82:  1.77  83:  1.59  84:  1.56  85:  1.49  86:  1.73  87:  1.58  88:  1.57
  89:  1.70  90:  1.65  91:  1.94  92:  1.91  93:  1.93  94:  1.77  95:  1.30  96:  1.45
 IR intensities (km·mol⁻¹)
   1:  0.00   2:  0.00   3:  0.00   4:  0.00   5:  0.00   6:  0.00   7:  0.00   8:  0.00
   9:  0.01  10:  0.01  11:  0.01  12:  0.02  13:  0.17  14:  0.03  15:  0.04  16:  0.07
  17:  0.19  18:  0.06  19:  0.66  20:  0.27  21:  0.05  22:  0.37  23:  1.08  24:  7.36
  25: 22.12  26:  3.21  27:  2.31  28:  1.99  29:  0.69  30:  1.50  31:  1.94  32:  2.81
  33:  0.92  34:  2.96  35:  0.32  36:  1.00  37:  0.34  38:  1.11  39:  1.09  40:  1.07
  41:  0.67  42:  1.79  43:  0.14  44:  0.20  45:  0.61  46:  0.28  47:  0.53  48:  0.57
  49:  0.37  50:  0.04  51:  0.18  52:  0.35  53:  0.42  54:  0.56  55:  0.30  56:  2.34
  57:  5.57  58:  0.87  59:  0.03  60:  1.65  61:  2.17  62:  0.80  63:  0.09  64:  0.35
  65:  0.43  66:  0.33  67:  1.07  68:  0.05  69:  1.10  70:  1.86  71:  0.73  72:  1.01
  73:  0.91  74:  1.09  75:  8.91  76:  7.55  77: 18.63  78: 48.96  79:  2.68  80: 19.37
  81: 39.09  82: 25.50  83:128.99  84: 92.47  85: 17.36  86: 55.04  87: 73.17  88: 27.88
  89: 70.00  90: 74.83  91: 65.06  92: 17.75  93:106.18  94: 46.96  95: 34.74  96: 33.27
 Raman intensities (amu)
   1:  0.00   2:  0.00   3:  0.00   4:  0.00   5:  0.00   6:  0.00   7:  0.00   8:  0.00
   9:  0.00  10:  0.00  11:  0.00  12:  0.00  13:  0.00  14:  0.00  15:  0.00  16:  0.00
  17:  0.00  18:  0.00  19:  0.00  20:  0.00  21:  0.00  22:  0.00  23:  0.00  24:  0.00
  25:  0.00  26:  0.00  27:  0.00  28:  0.00  29:  0.00  30:  0.00  31:  0.00  32:  0.00
  33:  0.00  34:  0.00  35:  0.00  36:  0.00  37:  0.00  38:  0.00  39:  0.00  40:  0.00
  41:  0.00  42:  0.00  43:  0.00  44:  0.00  45:  0.00  46:  0.00  47:  0.00  48:  0.00
  49:  0.00  50:  0.00  51:  0.00  52:  0.00  53:  0.00  54:  0.00  55:  0.00  56:  0.00
  57:  0.00  58:  0.00  59:  0.00  60:  0.00  61:  0.00  62:  0.00  63:  0.00  64:  0.00
  65:  0.00  66:  0.00  67:  0.00  68:  0.00  69:  0.00  70:  0.00  71:  0.00  72:  0.00
  73:  0.00  74:  0.00  75:  0.00  76:  0.00  77:  0.00  78:  0.00  79:  0.00  80:  0.00
  81:  0.00  82:  0.00  83:  0.00  84:  0.00  85:  0.00  86:  0.00  87:  0.00  88:  0.00
  89:  0.00  90:  0.00  91:  0.00  92:  0.00  93:  0.00  94:  0.00  95:  0.00  96:  0.00
 output can be read by thermo (or use thermo option).
 writing <g98.out> molden fake output.
 recommended (thermochemical) frequency scaling factor: 1.0
           -------------------------------------------------
          |             Thermodynamic Functions             |
           -------------------------------------------------

Molecule has no symmetry elements
It seems to be the C1 point group
c1  symmetry found (for desy threshold:  0.10E+00) used in thermo

          ...................................................
          :                      SETUP                      :
          :.................................................:
          :  # frequencies                          90      :
          :  # imaginary freq.                       0      :
          :  linear?                             false      :
          :  only rotor calc.                    false      :
          :  symmetry                               c1      :
          :  rotational number                       1      :
          :  scaling factor                  1.0000000      :
          :  rotor cutoff                   50.0000000 cm⁻¹ :
          :  imag. cutoff                  -20.0000000 cm⁻¹ :
          :.................................................:

    mode    ω/cm⁻¹     T·S(HO)/kcal·mol⁻¹    T·S(FR)/kcal·mol⁻¹   T·S(vib)
   ------------------------------------------------------------------------
       1     20.15    -1.97358 (  2.57%)    -1.32546 ( 97.43%)    -1.34211
       2     29.62    -1.74557 ( 10.97%)    -1.21142 ( 89.03%)    -1.27000
       3     50.56    -1.42972 ( 51.12%)    -1.05311 ( 48.88%)    -1.24562
       4     64.91    -1.28262 ( 73.97%)    -0.97911 ( 26.03%)    -1.20360
       5    105.82    -0.99704 ( 95.25%)    -0.83438 (  4.75%)    -0.98932
       6    140.12    -0.83548 ( 98.40%)    -0.75123 (  1.60%)    -0.83413
       7    161.02    -0.75662 ( 99.08%)    -0.71004 (  0.92%)    -0.75619
       8    202.93    -0.62801 ( 99.63%)    -0.64153 (  0.37%)    -0.62805
       9    232.90    -0.55351 ( 99.79%)    -0.60073 (  0.21%)    -0.55361
      10    244.10    -0.52855 ( 99.82%)    -0.58681 (  0.18%)    -0.52866
      11    256.51    -0.50249 ( 99.86%)    -0.57212 (  0.14%)    -0.50260
      12    273.81    -0.46870 ( 99.89%)    -0.55279 (  0.11%)    -0.46879
   ------------------------------------------------------------------------

   temp. (K)  partition function   enthalpy   heat capacity  entropy
                                   cal/mol     cal/K/mol   cal/K/mol   J/K/mol
 298.15  VIB  0.237E+06             6637.539     39.296     42.234
         ROT  0.131E+07              888.752      2.981     30.968
         INT  0.310E+12             7526.291     42.277     73.203
         TR   0.164E+28             1481.254      4.968     40.751
         TOT                        9007.5451    47.2453   113.9532   476.7802

       T/K    H(0)-H(T)+PV         H(T)/Eh          T*S/Eh         G(T)/Eh
   ------------------------------------------------------------------------
    298.15    0.143544E-01    0.315019E+00    0.541428E-01    0.260877E+00
   ------------------------------------------------------------------------

         :::::::::::::::::::::::::::::::::::::::::::::::::::::
         ::                  THERMODYNAMIC                  ::
         :::::::::::::::::::::::::::::::::::::::::::::::::::::
         :: total free energy         -32.387313477295 Eh   ::
         ::.................................................::
         :: total energy              -32.648190132524 Eh   ::
         :: zero point energy           0.300665063116 Eh   ::
         :: G(RRHO) w/o ZPVE           -0.039788407887 Eh   ::
         :: G(RRHO) contrib.            0.260876655229 Eh   ::
         :::::::::::::::::::::::::::::::::::::::::::::::::::::
 
 normal mode %tage of torsion character
   1:  0.00   2:  0.00   3:  0.00   4:  0.00   5:  0.00   6:  0.00   7:  0.28   8:  0.39
   9:  0.47  10:  0.52  11:  0.55  12:  0.54  13:  0.52  14:  0.62  15:  0.80  16:  0.67
  17:  0.52  18:  0.66  19:  0.54  20:  0.27  21:  0.15  22:  0.22  23:  0.27  24:  0.57
  25:  0.54  26:  0.54  27:  0.35  28:  0.46  29:  0.36  30:  0.32  31:  0.17  32:  0.26
  33:  0.41  34:  0.17  35:  0.37  36:  0.30  37:  0.10  38:  0.30  39:  0.24  40:  0.18
  41:  0.16  42:  0.28  43:  0.38  44:  0.32  45:  0.14  46:  0.50  47:  0.33  48:  0.21
  49:  0.16  50:  0.21  51:  0.09  52:  0.13  53:  0.13  54:  0.13  55:  0.08  56:  0.07
  57:  0.14  58:  0.12  59:  0.07  60:  0.06  61:  0.00  62:  0.00  63:  0.70  64:  0.65
  65:  0.67  66:  0.66  67:  0.65  68:  0.65  69:  0.63  70:  0.84  71:  0.75  72:  0.78
  73:  0.80  74:  0.81  75:  0.23  76:  0.24  77:  0.24  78:  0.30  79:  0.19  80:  0.20
  81:  0.18  82:  0.03  83:  0.02  84:  0.02  85:  0.02  86:  0.01  87:  0.06  88:  0.04
  89:  0.05  90:  0.09  91:  0.05  92:  0.04  93:  0.04  94:  0.05  95:  0.00  96:  0.02
 recommended # of modes for mode following           4

optimized geometry written to: xtbopt.xyz


           -------------------------------------------------
          | TOTAL ENERGY              -32.648190132524 Eh   |
          | TOTAL ENTHALPY            -32.333170632619 Eh   |
          | TOTAL FREE ENERGY         -32.387313477295 Eh   |
          | GRADIENT NORM               0.000395562477 Eh/α |
          | HOMO-LUMO GAP              12.955595967687 eV   |
           -------------------------------------------------

------------------------------------------------------------------------
 * finished run on 2024/04/20 at 10:58:21.240     
------------------------------------------------------------------------
 total:
 * wall-time:     0 d,  0 h,  0 min,  1.626 sec
 *  cpu-time:     0 d,  0 h,  0 min,  4.428 sec
 * ratio c/w:     2.724 speedup
 SCF:
 * wall-time:     0 d,  0 h,  0 min,  0.044 sec
 *  cpu-time:     0 d,  0 h,  0 min,  0.079 sec
 * ratio c/w:     1.815 speedup
 ANC optimizer:
 * wall-time:     0 d,  0 h,  0 min,  0.414 sec
 *  cpu-time:     0 d,  0 h,  0 min,  0.893 sec
 * ratio c/w:     2.159 speedup
 analytical hessian:
 * wall-time:     0 d,  0 h,  0 min,  1.121 sec
 *  cpu-time:     0 d,  0 h,  0 min,  3.302 sec
 * ratio c/w:     2.947 speedup

