32
 energy: -32.645975426269 gnorm: 0.028878738300 xtb: 6.6.1 (8d0f1dd)
C            2.15900900000000       -2.00438900000000       -0.00794700000000
C            2.86365100000000       -0.82739100000000        0.64964900000000
C            2.95576100000000        0.40788500000000       -0.25311200000000
C            1.59870200000000        0.98692000000000       -0.66464100000000
C            0.77339400000000        1.50524600000000        0.51355100000000
C           -0.55757900000000        2.13885900000000        0.09699100000000
C           -1.51877100000000        1.17506200000000       -0.60581400000000
C           -1.93480800000000       -0.01495300000000        0.25958000000000
C           -2.93979300000000       -0.93579700000000       -0.43405600000000
C           -3.31880300000000       -2.13769400000000        0.41669200000000
H            2.64497300000000       -2.28185100000000       -0.94558900000000
H            2.15515500000000       -2.88956600000000        0.63307100000000
H            1.11835000000000       -1.77181100000000       -0.24055600000000
H            2.35547700000000       -0.56298300000000        1.58612400000000
H            3.87436800000000       -1.13156900000000        0.95840100000000
H            3.53997400000000        1.19100800000000        0.24811100000000
H            3.53321400000000        0.14867400000000       -1.15052300000000
H            1.74253100000000        1.80365300000000       -1.38472000000000
H            1.02839400000000        0.22767900000000       -1.21140600000000
H            1.37402000000000        2.23220500000000        1.07659900000000
H            0.58520100000000        0.69004500000000        1.22109100000000
H           -0.35463100000000        2.99920800000000       -0.55452700000000
H           -1.05802100000000        2.55889500000000        0.97970200000000
H           -2.41993300000000        1.71486000000000       -0.92675000000000
H           -1.06758400000000        0.80870500000000       -1.53578300000000
H           -2.35697200000000        0.34643700000000        1.20565500000000
H           -1.05102900000000       -0.59691700000000        0.54643000000000
H           -3.83709500000000       -0.36049300000000       -0.69860900000000
H           -2.52335000000000       -1.26897700000000       -1.39414100000000
H           -3.75812000000000       -1.82674600000000        1.36661800000000
H           -4.04384900000000       -2.78428500000000       -0.08378700000000
H           -2.44351100000000       -2.74674200000000        0.65146500000000
32
 energy: -32.647809835970 gnorm: 0.012576486141 xtb: 6.6.1 (8d0f1dd)
C            2.15951089044421       -2.00300595395588       -0.01065270106301
C            2.86038136717204       -0.82588180775868        0.65076715029213
C            2.94951797612819        0.40760560479583       -0.25071167530202
C            1.59506418109004        0.98407896167481       -0.66495830125795
C            0.77258810973126        1.50060097614658        0.51423818799283
C           -0.55662457268995        2.13009706944475        0.09463885794253
C           -1.51847109652398        1.16800270764098       -0.60599228773587
C           -1.93423119246060       -0.01723390448384        0.26371121541546
C           -2.93905824040470       -0.92992834256995       -0.43685483991275
C           -3.31433861802882       -2.13068394981985        0.41799790266561
H            2.65255629111543       -2.27299506382612       -0.94446889589967
H            2.16957120628328       -2.87656271297854        0.64094967343417
H            1.11971169860008       -1.76938450744283       -0.23349130806391
H            2.34549286155924       -0.56570351157619        1.58060634101625
H            3.87565073144140       -1.12698479980309        0.93390760448406
H            3.52586234867241        1.18363670099070        0.26504909690119
H            3.51235023941777        0.14341843593058       -1.15295889890947
H            1.75876294909567        1.80692738586223       -1.36996018625395
H            1.03062516140971        0.21967677711130       -1.20337314628141
H            1.36371550376417        2.24546417910434        1.05917903429138
H            0.57698256110932        0.68583368920280        1.21489987920746
H           -0.35507142942437        2.97799633756294       -0.56959803404778
H           -1.05031050078073        2.53761755493702        0.98395064245063
H           -2.41648079954496        1.72128236979033       -0.90359618423446
H           -1.06322353102590        0.79990414103526       -1.53020813622334
H           -2.36759042989894        0.35202087642954        1.19940610468743
H           -1.05206766594171       -0.60580838020300        0.53148438974724
H           -3.83976238357923       -0.35735806235622       -0.68388355748452
H           -2.51344313929360       -1.27505077334549       -1.38577789000203
H           -3.75579766087281       -1.81256216448437        1.36227763292729
H           -4.03686930342701       -2.76589063142447       -0.09373166179162
H           -2.43667851313691       -2.73595220163147        0.64492299100812
32
 energy: -32.648075665711 gnorm: 0.002273618249 xtb: 6.6.1 (8d0f1dd)
C            2.16064830618066       -2.00541009588869       -0.01083656894353
C            2.86111285787141       -0.82615341446335        0.65148841523583
C            2.94756262523369        0.40792618106654       -0.24848551549898
C            1.59395823900876        0.98370818243202       -0.66474762961170
C            0.77238972570558        1.49952631849801        0.51414697891462
C           -0.55693213148780        2.12682236964807        0.09300131444101
C           -1.52015623758430        1.16533940518553       -0.60590119735737
C           -1.93390081468583       -0.01870012439114        0.26488328226173
C           -2.93956891340500       -0.92636671227456       -0.43881740599004
C           -3.31424102927380       -2.12815116398748        0.41830784498552
H            2.65558600607397       -2.26844129787769       -0.94367200612346
H            2.18034138112006       -2.87396295667277        0.64442138493808
H            1.12124492151298       -1.77279171892953       -0.22807046506232
H            2.34461446876476       -0.56973710136320        1.57822614750731
H            3.87793410988711       -1.12465685151202        0.92091338637013
H            3.51828973790591        1.18090884370773        0.27343567803298
H            3.50340966152421        0.14196495918090       -1.15192486291436
H            1.76661380790213        1.80909368708209       -1.36124379920958
H            1.03296575693602        0.21828795308496       -1.20007277077495
H            1.35811039885951        2.25301106232672        1.04864855628303
H            0.57500746858475        0.68658938836601        1.21249592271366
H           -0.35638409962161        2.96676849693765       -0.57799351868640
H           -1.04755554370235        2.52821663940589        0.98413069922461
H           -2.41637759717289        1.72386567218866       -0.89078107807761
H           -1.06603727912615        0.79570242019481       -1.52729812405939
H           -2.37105876907533        0.35297189977623        1.19525096719858
H           -1.05474191473642       -0.61126692419074        0.52454325176030
H           -3.84003068464760       -0.35497564451145       -0.67777306996324
H           -2.51058883201132       -1.27513925280071       -1.38199621250538
H           -3.75433955429256       -1.80488802763790        1.35959751409500
H           -4.03519759969809       -2.75833230779772       -0.09808300685755
H           -2.43435347255046       -2.72855288478289        0.64197488767348
32
 energy: -32.648092604266 gnorm: 0.000686674129 xtb: 6.6.1 (8d0f1dd)
C            2.16244080139960       -2.00730504319412       -0.01044828348075
C            2.86272957412955       -0.82687790717507        0.65199646751396
C            2.94781159769035        0.40795140606706       -0.24761509180481
C            1.59405563585450        0.98406286324144       -0.66463642328997
C            0.77242097519750        1.50034845164047        0.51398216090279
C           -0.55750744411938        2.12688654980819        0.09208031039445
C           -1.52158943967794        1.16504334725289       -0.60583838452884
C           -1.93442204390068       -0.01920101879481        0.26510194467664
C           -2.94077836829912       -0.92543430788710       -0.43965185115401
C           -3.31550110702091       -2.12784394963618        0.41801548761000
H            2.65595121618646       -2.26800772193815       -0.94443618149692
H            2.18579419348132       -2.87583756464706        0.64433879328151
H            1.12225951493013       -1.77634263786712       -0.22487470237320
H            2.34729101939008       -0.57204905343268        1.57937065699927
H            3.87988767161792       -1.12487163358703        0.91870062112698
H            3.51717890799023        1.18082723939969        0.27513642756864
H            3.50385722238975        0.14276149152941       -1.15069860889770
H            1.76790398364492        1.80962598361905       -1.35994954589811
H            1.03348277868161        0.21913721598394       -1.20059188832151
H            1.35721699026780        2.25522726058307        1.04655959885082
H            0.57582984110704        0.68844759181396        1.21335413271453
H           -0.35703727344429        2.96542947487427       -0.57993391517769
H           -1.04792409908793        2.52844584694753        0.98273208654477
H           -2.41799341887255        1.72369388505528       -0.88803324723897
H           -1.06950640527564        0.79568133163307       -1.52798984442801
H           -2.37078628115375        0.35184766099350        1.19564930932388
H           -1.05582142401232       -0.61251594165687        0.52349688632364
H           -3.84074202246661       -0.35371598647093       -0.67763801593781
H           -2.51208076335337       -1.27392291606267       -1.38256154233120
H           -3.75498101094293       -1.80349813236029        1.35892971379081
H           -4.03614699698241       -2.75789591425242       -0.09830362678852
H           -2.43496882534890       -2.72692087148032        0.64152555552531
32
 energy: -32.648115124375 gnorm: 0.002824458435 xtb: 6.6.1 (8d0f1dd)
C            2.16964794560216       -2.01315377023413       -0.00885874473002
C            2.86886168083440       -0.82961000257272        0.65303751801016
C            2.94896413585707        0.40801131274934       -0.24442591024145
C            1.59477213012194        0.98456137242847       -0.66379718149157
C            0.77212615078501        1.50329797573700        0.51312119683553
C           -0.55939908750778        2.12756878841181        0.08888788459959
C           -1.52645863607400        1.16499511669166       -0.60544057872471
C           -1.93626899541864       -0.02080899524323        0.26485243366549
C           -2.94560870370494       -0.92305975989378       -0.44133165197193
C           -3.32073477934462       -2.12686809741290        0.41676079737890
H            2.65699737144875       -2.26626443029136       -0.94790885423812
H            2.20585269261718       -2.88333121566294        0.64291335648249
H            1.12601349450956       -1.78873759585841       -0.21292781251224
H            2.35727396725494       -0.57967307206311        1.58349980297940
H            3.88764756777138       -1.12571363716593        0.91308910531704
H            3.51480413934644        1.18125449840850        0.28073383106624
H            3.50729776061338        0.14623842204710       -1.14652442668121
H            1.77165171242267        1.81015872340197       -1.35747809036707
H            1.03454762353040        0.22116743344784       -1.20201206275999
H            1.35491546460774        2.26218341732972        1.04093202769491
H            0.57838083431312        0.69475562263984        1.21694492367067
H           -0.35879057451565        2.96286679383794       -0.58607682453157
H           -1.04947419843455        2.53186745146514        0.97780665038722
H           -2.42429959555203        1.72370218921886       -0.88059000392217
H           -1.08099231410529        0.79698091480276       -1.53104642835283
H           -2.36936934239318        0.34759605254984        1.19746829125673
H           -1.05836295704162       -0.61606033653817        0.51961505427450
H           -3.84430924240685       -0.34947097413403       -0.67703374508324
H           -2.51877562977386       -1.27016703180160       -1.38493079083340
H           -3.75904159770990       -1.80043725986038        1.35710250020526
H           -4.04077656587339       -2.75741515093265       -0.09877666668124
H           -2.43876745177984       -2.72325775550242        0.64016339929865
32
 energy: -32.648123826846 gnorm: 0.001880011147 xtb: 6.6.1 (8d0f1dd)
C            2.17205729039812       -2.01383594223330       -0.00850042402863
C            2.87048416441910       -0.83013708207254        0.65306925356065
C            2.94913991307614        0.40802779654811       -0.24353423474989
C            1.59495528094981        0.98395772505866       -0.66327548673233
C            0.77177329560439        1.50371209248140        0.51283759083330
C           -0.55967038168772        2.12755226012032        0.08811112765995
C           -1.52739144443910        1.16528985115115       -0.60539551703061
C           -1.93664101548490       -0.02108737669207        0.26432303519800
C           -2.94700968724080       -0.92274994017578       -0.44109983527780
C           -3.32236352030424       -2.12636952792889        0.41645393523836
H            2.65723737790351       -2.26499618768796       -0.94929880100509
H            2.21178995511097       -2.88507367515514        0.64180233834295
H            1.12731898194879       -1.79151749395598       -0.20941758558359
H            2.35954053352811       -0.58104947641139        1.58431341536434
H            3.88994885730499       -1.12539040485922        0.91250918569310
H            3.51441097403949        1.18155011026800        0.28226887392247
H            3.50832234037878        0.14748743009488       -1.14571584904586
H            1.77211935586955        1.80913692780796       -1.35775285541690
H            1.03457426987862        0.22034110422024       -1.20129666446007
H            1.35446892089004        2.26336261838115        1.04016679992517
H            0.57833145722239        0.69581390550515        1.21770322480413
H           -0.35886954689229        2.96252948511250       -0.58758240277249
H           -1.04946672540368        2.53332223412394        0.97678761002090
H           -2.42566110009317        1.72429488914149       -0.87959232321277
H           -1.08291924299731        0.79782477899307       -1.53189038873605
H           -2.36873796747992        0.34666336970863        1.19791020315167
H           -1.05832510769927       -0.61660262963408        0.51782261213448
H           -3.84566431097707       -0.34837502391066       -0.67615234791104
H           -2.52117734584524       -1.26971731609246       -1.38546117373127
H           -3.76102302716612       -1.80048124179735        1.35694463883193
H           -4.04252270184088       -2.75693597072119       -0.09918821961678
H           -2.44070484297108       -2.72337028938864        0.63989926462978
32
 energy: -32.648140535787 gnorm: 0.002561707522 xtb: 6.6.1 (8d0f1dd)
C            2.18689446992708       -2.01720900008405       -0.00673901662853
C            2.88011884743895       -0.83228425185278        0.65372550215529
C            2.95016993940725        0.40886808518505       -0.23832018846515
C            1.59518997485659        0.97919050536729       -0.66021707228202
C            0.76958751560561        1.50496523000891        0.51160001156041
C           -0.56085398685592        2.12715596205978        0.08365062766940
C           -1.53218708864201        1.16666494291242       -0.60564409986161
C           -1.93816994102208       -0.02274406130834        0.26121009184453
C           -2.95545765757233       -0.92017095427209       -0.43959489729428
C           -3.33253855571726       -2.12303771988389        0.41483749773182
H            2.65928324621112       -2.25506672911935       -0.95819726761835
H            2.24833954456294       -2.89492845509477        0.63429127330374
H            1.13560355416744       -1.80736040695630       -0.18838925524348
H            2.37173899127523       -0.58818413610686        1.58853807776893
H            3.90320649717608       -1.12189055695008        0.90984619322205
H            3.51121257596753        1.18425481411407        0.29105292828558
H            3.51363492934915        0.15528707796429       -1.14089251356237
H            1.77243151092651        1.80112146956775       -1.35999164511412
H            1.03476557280771        0.21254480771214       -1.19493816666803
H            1.35174562967566        2.26846917873656        1.03606469540266
H            0.57693229059827        0.70055421398364        1.22150524751062
H           -0.35871920577880        2.95973301572545       -0.59631205537571
H           -1.04887926307484        2.54067756399484        0.97091423303141
H           -2.43220042206187        1.72763291719178       -0.87440442251515
H           -1.09268117512179        0.80213323869021       -1.53644748301558
H           -2.36373152531794        0.34161231340816        1.20009870794222
H           -1.05786250823816       -0.62014355217878        0.50625492307254
H           -3.85348397826295       -0.34101992607001       -0.66987720972653
H           -2.53605225398539       -1.26676063820552       -1.38804413986217
H           -3.77295909899460       -1.80037488574126        1.35618202747234
H           -4.05367460723618       -2.75244485996653       -0.10231681547129
H           -2.45307882207095       -2.72406820283174        0.63832321073080
32
 energy: -32.648146823540 gnorm: 0.001731793752 xtb: 6.6.1 (8d0f1dd)
C            2.18713041509449       -2.01669739811663       -0.00699813715967
C            2.88007250155778       -0.83159025099180        0.65406441723167
C            2.95021931355973        0.40926596853204       -0.23855347183383
C            1.59466177959998        0.97853803548201       -0.66030615887128
C            0.76955217354478        1.50419627474893        0.51188381593623
C           -0.56064028972897        2.12705042920587        0.08391171320321
C           -1.53162237806898        1.16640747060703       -0.60595747426075
C           -1.93779934863992       -0.02273489704644        0.26124207895681
C           -2.95545281556900       -0.91977662566383       -0.43956576790528
C           -3.33284375558339       -2.12286550849349        0.41497468635818
H            2.65964356355455       -2.25396408394886       -0.95827373858872
H            2.24846823935813       -2.89436477193628        0.63360065304635
H            1.13609613178438       -1.80693069070559       -0.18879558212609
H            2.37092313486164       -0.58733334489105        1.58824865171119
H            3.90283701677131       -1.12104376280431        0.91067778709581
H            3.51079464747680        1.18496667872696        0.29046479987130
H            3.51344815382393        0.15535419020044       -1.14095501375860
H            1.77063986333319        1.80007982817391       -1.36053913162595
H            1.03474579784195        0.21091009512310       -1.19391068487980
H            1.35197865802447        2.26702509510948        1.03657755871146
H            0.57626611568132        0.69954349698183        1.22115394746546
H           -0.35824013024923        2.95955699121280       -0.59573998535105
H           -1.04887967666423        2.53992304256439        0.97111408583169
H           -2.43130391235537        1.72722492913609       -0.87517280795883
H           -1.09149198265608        0.80162459419273       -1.53619460197266
H           -2.36299176472290        0.34191739057656        1.19994868454272
H           -1.05782216671989       -0.62040746402151        0.50602507771130
H           -3.85324909713986       -0.34048923973840       -0.66946561267277
H           -2.53624862617721       -1.26647142213717       -1.38784689460645
H           -3.77289840434045       -1.80003449028933        1.35634460687161
H           -4.05418381248492       -2.75169284793461       -0.10240720090997
H           -2.45348434476800       -2.72401071185486        0.63821869993672
32
 energy: -32.648165126961 gnorm: 0.002158580902 xtb: 6.6.1 (8d0f1dd)
C            2.19663580916343       -2.01499170396764       -0.00794228169284
C            2.88463434162732       -0.82728750513716        0.65688738361488
C            2.95114524018088        0.41284715805067       -0.23792578478247
C            1.59052147169108        0.97110343352217       -0.65960761524802
C            0.76818639751519        1.49868316268879        0.51358031008148
C           -0.55976484914278        2.12587759864678        0.08388088643306
C           -1.52964222969007        1.16481835837987       -0.60849648779818
C           -1.93589787376049       -0.02374823594196        0.25994163643992
C           -2.96006715376692       -0.91510547650576       -0.43905019980590
C           -3.34055054048733       -2.11951642820417        0.41505579342670
H            2.66473559298302       -2.24024925167300       -0.96358286435532
H            2.26929744970267       -2.89571955760056        0.62581711197779
H            1.14341446926990       -1.81197218988923       -0.18104159033535
H            2.37102063886303       -0.58458276923453        1.58830473783504
H            3.90688402645165       -1.11281628942524        0.91553314424620
H            3.50583366198028        1.19242570037187        0.28985503200410
H            3.51509657939322        0.15976394293119       -1.13908087050369
H            1.75674679864570        1.78834794753618       -1.36587143843184
H            1.03457618849102        0.19469626848847       -1.18365722411881
H            1.35267292643296        2.25834132680013        1.03850769694477
H            0.57071547926908        0.69404089388360        1.22095241890086
H           -0.35450156419330        2.95696234390560       -0.59517128280260
H           -1.04929304778435        2.53744256858610        0.96984819950458
H           -2.42805251125051        1.72509284789851       -0.87860552302949
H           -1.08731960039892        0.79952912376233       -1.53674607869867
H           -2.35484068373495        0.34152601730910        1.20019119625423
H           -1.05773202935190       -0.62506412001568        0.49889063918787
H           -3.85568213396459       -0.33208194093524       -0.66375125865121
H           -2.54555972925200       -1.26221316086338       -1.38825433283731
H           -3.77795096074011       -1.79622141359439        1.35708806314218
H           -4.06422378172326       -2.74361115521161       -0.10388142935294
H           -2.46271338241891       -2.72314049456182        0.63610101245095
32
 energy: -32.648171848860 gnorm: 0.001510705462 xtb: 6.6.1 (8d0f1dd)
C            2.20220094162220       -2.01559992973923       -0.00752228978463
C            2.88783995932294       -0.82685093975335        0.65751078858495
C            2.95146966221653        0.41368200782209       -0.23680729347441
C            1.58973929839970        0.96864925537922       -0.65883588375299
C            0.76738614811500        1.49777615437299        0.51363710023238
C           -0.56000729066024        2.12535255616960        0.08308559140060
C           -1.53029428625423        1.16466377023757       -0.60897748822099
C           -1.93611410746984       -0.02448891831625        0.25882594511953
C           -2.96316804724808       -0.91350388514206       -0.43887104517458
C           -3.34447594327825       -2.11781736996494        0.41462060931263
H            2.66686210293628       -2.23583584458768       -0.96623638492090
H            2.28198657166843       -2.89822148276490        0.62319312025085
H            1.14697117096234       -1.81701908756121       -0.17497381742894
H            2.37408063181519       -0.58559272350635        1.58934224139951
H            3.91093729131620       -1.11034113049732        0.91579939999251
H            3.50409663781795        1.19467602761019        0.29134583392697
H            3.51669842228617        0.16229824164827       -1.13782107447087
H            1.75417345413362        1.78457867674522       -1.36727295760617
H            1.03453367348129        0.19024275482048       -1.18081630296785
H            1.35230294627830        2.25776727599715        1.03797065353790
H            0.56953287207810        0.69396815873758        1.22201592831661
H           -0.35387348534995        2.95598157728307       -0.59650745472503
H           -1.04963274116253        2.53822686537074        0.96857916396377
H           -2.42907891659289        1.72511005994891       -0.87824910224984
H           -1.08863846697197        0.79995336414608       -1.53790060481857
H           -2.35240289879634        0.34013381194553        1.20070474028981
H           -1.05804153772030       -0.62729065293377        0.49506980171697
H           -3.85817672972554       -0.32848668381013       -0.66157996275992
H           -2.55100392051509       -1.26045194926138       -1.38932760272832
H           -3.78121250308576       -1.79472367518536        1.35709076685833
H           -4.06911618734656       -2.74096776233606       -0.10422825593133
H           -2.46724972227260       -2.72269152287472        0.63490483611201
32
 energy: -32.648179549343 gnorm: 0.001771163350 xtb: 6.6.1 (8d0f1dd)
C            2.23050421874706       -2.01830572320432       -0.00527336069213
C            2.90366529775549       -0.82372310359848        0.66052676523486
C            2.95292014369036        0.41813867600552       -0.23213260952931
C            1.58533729302418        0.95620636558445       -0.65530612896339
C            0.76339222941528        1.49210657687083        0.51433442868696
C           -0.56122615308202        2.12197240173061        0.08018549190844
C           -1.53269011941632        1.16333871558909       -0.61170216872392
C           -1.93743029861424       -0.02827220329685        0.25297320895827
C           -2.97895701644088       -0.90508921673438       -0.43849115356766
C           -3.36415756850513       -2.10863641692354        0.41257119448402
H            2.67953049753989       -2.21512663875368       -0.97752492540299
H            2.34383584694136       -2.90883041388285        0.61133678389445
H            1.16639480104694       -1.84173902085956       -0.14716254719412
H            2.38858699338779       -0.58913289014471        1.59383397687610
H            3.93076381126134       -1.09656395627101        0.91775366784565
H            3.49552910870194        1.20642660958195        0.29697534592135
H            3.52370793089830        0.17447279360802       -1.13256472323089
H            1.74021212860467        1.76601664916821       -1.37403714387704
H            1.03402687525084        0.16776794576815       -1.16695298645037
H            1.35070735830877        2.25312131901101        1.03614689728626
H            0.56350233093082        0.69185219455974        1.22689105959601
H           -0.35099003225028        2.95124041209390       -0.60085754706556
H           -1.05164857451860        2.53968210182952        0.96378665673990
H           -2.43291651040003        1.72450031516986       -0.87803678720266
H           -1.09309398043474        0.80124754839642       -1.54317759941972
H           -2.34076344766248        0.33351978352383        1.20248728153141
H           -1.06057450555896       -0.63904268200534        0.47632201591032
H           -3.87072809805422       -0.31010788933248       -0.65118963825733
H           -2.57856980944203       -1.25136214000105       -1.39500885193998
H           -3.79590012331320       -1.78579959908363        1.35769229018256
H           -4.09469175944843       -2.72671391884692       -0.10462536356358
H           -2.48995386836338       -2.71998759555230        0.62799547002411
32
 energy: -32.648185762282 gnorm: 0.000607194216 xtb: 6.6.1 (8d0f1dd)
C            2.22454959955986       -2.01751926934110       -0.00555391679071
C            2.90004780431802       -0.82383054049246        0.65963154698059
C            2.95246893977472        0.41711837664950       -0.23409223603044
C            1.58623759607872        0.95924445451648       -0.65632393162518
C            0.76430844576802        1.49268719989501        0.51442216013954
C           -0.56106319815683        2.12215682983348        0.08177972905766
C           -1.53163557295658        1.16331625961992       -0.61122629593650
C           -1.93760279410091       -0.02747189217631        0.25397165263177
C           -2.97566749157329       -0.90689429368836       -0.43896993406593
C           -3.35973545346840       -2.11026875462832        0.41313640022409
H            2.67863653401658       -2.22200843785972       -0.97282784687384
H            2.32777113101819       -2.90457480548827        0.61560580411207
H            1.16367327482533       -1.83558264134337       -0.15618252109664
H            2.38499088607609       -0.58721328463926        1.59228949454968
H            3.92612325865149       -1.09875616723725        0.91767391482094
H            3.49783628083798        1.20379551230549        0.29407698178499
H            3.52132744016243        0.17116022119999       -1.13487800803679
H            1.74314384088573        1.77089678254852       -1.37207016832895
H            1.03406660680978        0.17356189041555       -1.17082682189292
H            1.35117348855441        2.25306064296531        1.03729397103898
H            0.56501286790958        0.69109684583122        1.22544453942359