32
 energy: -32.648190132524 gnorm: 0.000395563247 xtb: 6.6.1 (8d0f1dd)
C            2.22719945744795       -2.01802715314453       -0.00489750393917
C            2.90128473377990       -0.82284188736645        0.65959200754218
C            2.95259326613180        0.41755178548345       -0.23505595736760
C            1.58580812713731        0.95902984749376       -0.65658320408942
C            0.76418648890013        1.49140934842198        0.51486356225922
C           -0.56134268865965        2.12116228146646        0.08286926624197
C           -1.53130314541671        1.16279047537369       -0.61174303630050
C           -1.93848015416239       -0.02767623460031        0.25328952208580
C           -2.97736128556655       -0.90603423366028       -0.43974826092305
C           -3.36139919267273       -2.10912103781822        0.41312952570765
H            2.68298980584786       -2.22342088280710       -0.97108211412488
H            2.33036141380368       -2.90368935242903        0.61799286867581
H            1.16661603887416       -1.83666559759962       -0.15726211140326
H            2.38577837115038       -0.58621760706949        1.59187900186976
H            3.92749594580210       -1.09637957301128        0.91779628862840
H            3.49800346093686        1.20461069379940        0.29216116270304
H            3.52051642331243        0.17110298476967       -1.13609788915001
H            1.74202304423708        1.77111793197404       -1.37169892092028
H            1.03399280739511        0.17319195583528       -1.17109961772359
H            1.35095909694136        2.25134525977672        1.03806818642159
H            0.56499507882607        0.68922231596599        1.22508588199787
H           -0.35259303757600        2.95268201199211       -0.59536454576366
H           -1.05214185790451        2.53446764501882        0.96793495818045
H           -2.43026175461252        1.72398481288487       -0.88072911324111
H           -1.08924472108953        0.79984072129343       -1.54143467069222
H           -2.34495677846904        0.33535364389930        1.20042395188288
H           -1.06268474923849       -0.63781978156685        0.48027069190060
H           -3.86937583627986       -0.31290406211224       -0.65422156316563
H           -2.57499504173055       -1.25276936427719       -1.39479038959952
H           -3.79029783589722       -1.78482240849244        1.35892248618642
H           -4.09334191626993       -2.72721876999308       -0.10170915929942
H           -2.48671424660142       -2.72007359840677        0.62701637000556
