44
 energy: -45.305271657119 gnorm: 0.033367473749 xtb: 6.6.1 (8d0f1dd)
C            7.00096200000000        2.24266200000000        0.21134900000000
C            6.34514800000000        0.94926300000000       -0.24635800000000
C            4.89135000000000        0.82878500000000        0.21226500000000
C            4.21804200000000       -0.45926300000000       -0.26130000000000
C            2.77068400000000       -0.58397400000000        0.21495700000000
C            2.08815600000000       -1.86130600000000       -0.27586900000000
C            0.66034100000000       -2.03358700000000        0.25030900000000
C           -0.30809400000000       -0.96003600000000       -0.24713900000000
C           -1.74133900000000       -1.17613000000000        0.23869800000000
C           -2.70102900000000       -0.08789300000000       -0.24148200000000
C           -4.13451500000000       -0.29379700000000        0.24754200000000
C           -5.08438200000000        0.81226200000000       -0.21181400000000
C           -6.52058700000000        0.60986600000000        0.27332500000000
C           -7.45264100000000        1.72756500000000       -0.16794400000000
H            6.99145300000000        2.32637700000000        1.30014800000000
H            8.04173900000000        2.31405900000000       -0.11440100000000
H            6.47350500000000        3.11424500000000       -0.18219200000000
H            6.91424800000000        0.08501200000000        0.12182700000000
H            6.38790100000000        0.87046000000000       -1.34103100000000
H            4.84418700000000        0.88843300000000        1.30669800000000
H            4.31992600000000        1.69499800000000       -0.14377900000000
H            4.79593000000000       -1.32595500000000        0.08290100000000
H            4.25178500000000       -0.51182100000000       -1.35665800000000
H            2.20431800000000        0.29460500000000       -0.11600100000000
H            2.73917500000000       -0.54733900000000        1.31102600000000
H            2.70047000000000       -2.72623300000000        0.01207100000000
H            2.07871900000000       -1.87066100000000       -1.37292000000000
H            0.67139900000000       -2.03378900000000        1.34743200000000
H            0.27330000000000       -3.02186600000000       -0.03185300000000
H           -0.29148800000000       -0.92812900000000       -1.34371100000000
H            0.03554700000000        0.03109100000000        0.07205700000000
H           -1.75574100000000       -1.22242400000000        1.33482600000000
H           -2.10056900000000       -2.15853000000000       -0.09232200000000
H           -2.33767600000000        0.89354400000000        0.08812800000000
H           -2.68797600000000       -0.04184000000000       -1.33764300000000
H           -4.14470400000000       -0.35665900000000        1.34283200000000
H           -4.50613200000000       -1.26705600000000       -0.09655300000000
H           -4.71217200000000        1.78402300000000        0.13597100000000
H           -5.07092000000000        0.87892400000000       -1.30685000000000
H           -6.89260100000000       -0.35870700000000       -0.08736600000000
H           -6.52465900000000        0.52440900000000        1.36848000000000
H           -7.11592500000000        2.69514400000000        0.21037000000000
H           -7.49051100000000        1.80418100000000       -1.25668000000000
H           -8.47502500000000        1.57475800000000        0.18644200000000
44
 energy: -45.307666711593 gnorm: 0.015199487117 xtb: 6.6.1 (8d0f1dd)
C            6.99123431697679        2.23798468474237        0.21267061667175
C            6.33912574303066        0.94288460273035       -0.24767403323513
C            4.88679772051688        0.82771560145167        0.21379350460455
C            4.21814232012953       -0.46162032623072       -0.26151029367226
C            2.77134742333514       -0.57787151026234        0.21671946807290
C            2.08518731058740       -1.85107776192989       -0.27790221617300
C            0.65950885035296       -2.02281764859844        0.25225153533513
C           -0.31174168449695       -0.95404077172072       -0.24880369702268
C           -1.74289001673324       -1.17741931322095        0.23921747312951
C           -2.70027319997318       -0.08726782835001       -0.24212987510066
C           -4.13275769439384       -0.29571470092159        0.24825457590342
C           -5.07859277558907        0.81248622792436       -0.21324669041151
C           -6.51231693629959        0.60530974766215        0.27436983610894
C           -7.44176155659452        1.72502133132657       -0.16943294396137
H            6.98274425073556        2.31277679891458        1.29996885688132
H            8.02758774691244        2.29542191656526       -0.11949881300114
H            6.46252255470915        3.10322385871668       -0.18701596263565
H            6.90889374390483        0.08935345492240        0.13579741919390
H            6.37722733267766        0.88234557715814       -1.34090794093661
H            4.85076818121568        0.87401363903908        1.30746500895068
H            4.32097465717298        1.68873416746561       -0.15795929717620
H            4.79182973711147       -1.32273078639658        0.09778830466869
H            4.24258162750395       -0.50001215163405       -1.35589262279354
H            2.21293419138635        0.29612221951953       -0.13054530935055
H            2.74837919818148       -0.55735991986262        1.31153735417068
H            2.68562618843974       -2.71541433844251        0.02769631019659
H            2.06799050297381       -1.85237341657176       -1.37296040182117
H            0.67645473162323       -2.01339783312731        1.34729618024190
H            0.28415913625820       -3.00783564833760       -0.04746432642494
H           -0.29928087811760       -0.93992005018943       -1.34389327209519
H            0.02580059223373        0.03080183820112        0.08653156949517
H           -1.75089925464463       -1.20827538454708        1.33405177296499
H           -2.09871794486364       -2.15370474689914       -0.10695611439556
H           -2.33965593063268        0.88780358804426        0.10287245556606
H           -2.69332824024276       -0.05663383698646       -1.33693976994326
H           -4.13776479440191       -0.34277336503670        1.34252144494187
H           -4.50275063544284       -1.26195017165160       -0.11097836911688
H           -4.71055127354216        1.77794881346192        0.15016323594078
H           -5.07311970423593        0.86351946655025       -1.30727865936338
H           -6.88765878916751       -0.35292044901130       -0.10139009667795
H           -6.51621556214067        0.53874301885932        1.36795463903613
H           -7.10279075220723        2.68684529508939        0.21518039473240
H           -7.47828622460728        1.79279191202440       -1.25659547244730
H           -8.45686520964241        1.55895519955941        0.19066222094859
44
 energy: -45.308085879005 gnorm: 0.002314220657 xtb: 6.6.1 (8d0f1dd)
C            6.98473038705617        2.23406917010962        0.21332212148670
C            6.33407742933081        0.93653683764392       -0.24895328136144
C            4.88289969616015        0.82548759152780        0.21475406802110
C            4.21614704076523       -0.46412451043297       -0.26157609969032
C            2.76937637880206       -0.57101155644706        0.21830498174592
C            2.08208550592114       -1.84232066916621       -0.27885029801731
C            0.65696296194457       -2.01371421610814        0.25321063133056
C           -0.31452794570446       -0.94637385588589       -0.25037701973554
C           -1.74372117367806       -1.17833377033895        0.23973315038530
C           -2.69865538668285       -0.08648792451134       -0.24329957104173
C           -4.12978175718344       -0.29885286981848        0.24928083361593
C           -5.07221818693812        0.81131842725880       -0.21409924530798
C           -6.50406565428473        0.60047446692252        0.27554739804019
C           -7.43317679266996        1.72243789880528       -0.17042490245925
H            6.97465256204855        2.30318621375350        1.29926140806231
H            8.01845218717211        2.28453674492116       -0.12235081616678
H            6.45317819492641        3.09454083973404       -0.18818902746672
H            6.90285251813717        0.08864694403852        0.14080077753245
H            6.36902109655020        0.88449085132466       -1.34006915976722
H            4.85199256390543        0.86605394240639        1.30666384937193
H            4.32029575733437        1.68301168052681       -0.16358206724693
H            4.78645207851099       -1.32177755179054        0.10487858557025
H            4.23690122988018       -0.49670346019100       -1.35406402142797
H            2.21876959654075        0.30256579689391       -0.13501875081567
H            2.75135361820728       -0.55888388279631        1.31118012018871
H            2.67506691683062       -2.70658532449709        0.03377562897282
H            2.06042839088836       -1.83782518250146       -1.37167590881888
H            0.67746277022097       -1.99748720191226        1.34596952644013
H            0.28884268260253       -2.99690714895980       -0.05339182656383
H           -0.30459100590353       -0.94181315775829       -1.34341470814575
H            0.01647534181438        0.03603336892038        0.09092988180564
H           -1.74896781432550       -1.20265382938961        1.33259957515647
H           -2.09700305015683       -2.15056920371155       -0.11366141303590
H           -2.33989614375201        0.88434206773116        0.10878175104974
H           -2.69468404529643       -0.06269845247743       -1.33613522082132
H           -4.13259438690766       -0.33844026031720        1.34172959161286
H           -4.49889836766923       -1.26048159837667       -0.11655764853834
H           -4.70643870033094        1.77272555168805        0.15580990233801
H           -5.07040028839837        0.85537483398367       -1.30628409090763
H           -6.87975518179829       -0.35205415172672       -0.10644150478524
H           -6.50717201857129        0.54301392483197        1.36696602324293
H           -7.09152078846511        2.68043571913389        0.21645543780947
H           -7.46659162938928        1.78536141315669       -1.25625257244247
H           -8.44421758744435        1.54912649380221        0.19250191078477
44
 energy: -45.308125359612 gnorm: 0.001436476493 xtb: 6.6.1 (8d0f1dd)
C            6.98272030922701        2.23186794413571        0.21325652462121
C            6.33226044688394        0.93358414587278       -0.24968246008622
C            4.88155457495665        0.82432799690992        0.21501133762503
C            4.21443227474485       -0.46495460204958       -0.26108273078523
C            2.76775659738219       -0.56804763782420        0.21926759534053
C            2.08029391677396       -1.83831228600710       -0.27935214439559
C            0.65553588675302       -2.00952381550692        0.25378464696372
C           -0.31541689251213       -0.94295627550867       -0.25135132566135
C           -1.74356669944022       -1.17804161380165        0.23936597838118
C           -2.69796175038045       -0.08628268336316       -0.24366020219382
C           -4.12813910723968       -0.30034661193799        0.24961175036729
C           -5.06946635668846        0.81022151925981       -0.21416885656955
C           -6.50054419443816        0.59819149304292        0.27623168494864
C           -7.42972246783872        1.72073636371741       -0.17063281869072
H            6.97159235810871        2.29953146562423        1.29900269683712
H            8.01596749564705        2.28253776834254       -0.12272704062161
H            6.44947283325449        3.09114202694784       -0.18782490695518
H            6.90037010159809        0.08594984582327        0.14010369779713
H            6.36627671627103        0.88200535486558       -1.34031562516801
H            4.85082919767165        0.86457631652063        1.30646838147054
H            4.31914280169563        1.68133869152010       -0.16340070119313
H            4.78294664235086       -1.32272077514372        0.10634898131795
H            4.23509400502867       -0.49824911857973       -1.35305788650952
H            2.21995896723936        0.30682803446923       -0.13385219374448
H            2.75014114036414       -0.55640637553965        1.31164486499046
H            2.67260301174181       -2.70253936260419        0.03251673534157
H            2.05770946841234       -1.83184287628245       -1.37169938586954
H            0.67633900673026       -1.99105559143613        1.34604198070347
H            0.28753482773486       -2.99231242137569       -0.05203703742121
H           -0.30603279469415       -0.93902091831566       -1.34386330307047
H            0.01279364588508        0.03994820964925        0.08973881224198
H           -1.74882770448628       -1.20272307860009        1.33169750562984
H           -2.09576221880066       -2.14971275465579       -0.11494110384931
H           -2.33956120579051        0.88392719279881        0.10883927966463
H           -2.69416748928795       -0.06264706655758       -1.33596736704076
H           -4.13043990593981       -0.33973557299821        1.34155083761579
H           -4.49672425667261       -1.26149544756698       -0.11647920749338
H           -4.70326176491023        1.77087927471212        0.15584470211799
H           -5.06731396473117        0.85376974501761       -1.30588918104913
H           -6.87544312710976       -0.35404213346270       -0.10572099988758
H           -6.50288333170849        0.54154664653475        1.36715706776135
H           -7.08680482762109        2.67798204749512        0.21620098993425
H           -7.46128860239402        1.78267700629358       -1.25629744432301
H           -8.44039856377110        1.54707092956463        0.19210587090710
44
 energy: -45.308158716410 gnorm: 0.002827154075 xtb: 6.6.1 (8d0f1dd)
C            6.97890594437247        2.22600075877395        0.21270916143845
C            6.32876481610829        0.92709146306027       -0.25131372914724
C            4.87927968155055        0.82145253897665        0.21552919718838
C            4.20990971452209       -0.46639291711872       -0.25893429933886
C            2.76342812706475       -0.56141085678973        0.22131111382580
C            2.07559692339167       -1.82907396285989       -0.28046165024440
C            0.65243555217964       -1.99958838086127        0.25512624778063
C           -0.31702073811203       -0.93506453346922       -0.25342749690796
C           -1.74277425508942       -1.17654290672494        0.23746619542769
C           -2.69658341311869       -0.08586758901892       -0.24452457745023
C           -4.12419027648069       -0.30371998614161        0.25012885139759
C           -5.06382518461164        0.80685770874405       -0.21370893724932
C           -6.49322946692433        0.59320320857453        0.27791506255626
C           -7.42203500067026        1.71607601350986       -0.17096911162904
H            6.96603352227020        2.29088221772979        1.29843134581613
H            8.01156996684509        2.27948892199717       -0.12332664821176
H            6.44189117804322        3.08351436879841       -0.18665330967958
H            6.89544747173450        0.07838876371990        0.13721142351360
H            6.36084412095882        0.87492823385473       -1.34161265582258
H            4.84840996980058        0.86224128983884        1.30664834461345
H            4.31681230521954        1.67843407698088       -0.16195938491368
H            4.77410595827416       -1.32575340368176        0.11022685026149
H            4.23098057286496       -0.50315725019220       -1.35043762918551
H            2.22082047974196        0.31714090852615       -0.13019572645928
H            2.74530231591580       -0.54963580850899        1.31329740239966
H            2.66869079373619       -2.69369366244851        0.02657313712189
H            2.05060759232821       -1.81768466663621       -1.37236471533075
H            0.67371783731554       -1.97562158005168        1.34689737930907
H            0.28240896273767       -2.98242650827572       -0.04585114377721
H           -0.30799327087041       -0.93113340616751       -1.34552148472670
H            0.00576148924590        0.05004421459394        0.08581945437590
H           -1.74845994075666       -1.20386046968224        1.32933135772517
H           -2.09239228702825       -2.14811479932453       -0.11826073039480
H           -2.33889669776174        0.88414789713051        0.10798546043821
H           -2.69286399061644       -0.06094941718570       -1.33640251660714
H           -4.12543080374538       -0.34432863609674        1.34163494688848
H           -4.49146915317299       -1.26507206107032       -0.11558358083898
H           -4.69587483929767        1.76682404010725        0.15540727705039
H           -5.06020453328546        0.85048696160525       -1.30509393066437
H           -6.86609517673309       -0.36003249254243       -0.10246968251436
H           -6.49369546393566        0.53697533028748        1.36849266698300
H           -7.07660079310303        2.67242060182106        0.21532388605146
H           -7.44939378975590        1.77629625801271       -1.25666819145184
H           -8.43309722115204        1.54390051820544        0.19006237038292
44
 energy: -45.308133965785 gnorm: 0.004208148981 xtb: 6.6.1 (8d0f1dd)
C            6.97635522760033        2.22203722032820        0.21233616211945
C            6.32642692694615        0.92272595277480       -0.25240813198566
C            4.87776526939809        0.81951834393670        0.21588301363959
C            4.20686743990932       -0.46735128890914       -0.25747137903879
C            2.76051483160422       -0.55694844076455        0.22268097608301
C            2.07242881684418       -1.82285514685751       -0.28121719980944
C            0.65036290266653       -1.99289648775484        0.25603833007599
C           -0.31809137434326       -0.92975728729968       -0.25482055499907
C           -1.74223686938613       -1.17552116780489        0.23617061755734
C           -2.69566402724211       -0.08558553142331       -0.24511103725126
C           -4.12153898428783       -0.30598734943809        0.25047131317180
C           -5.06005165685155        0.80458424076900       -0.21338962654516
C           -6.48833151143165        0.58984965912806        0.27905206768384
C           -7.41687083298865        1.71292906631968       -0.17119652202732
H            6.96233515382922        2.28504934194621        1.29804514797585
H            8.00862719785068        2.27742594752654       -0.12374300250198
H            6.43681719907993        3.07837915593950       -0.18586509546636
H            6.89215343036456        0.07329767871301        0.13527094256186
H            6.35720038533266        0.87017404328041       -1.34249061957786
H            4.84681606377594        0.86067322592612        1.30678336000405
H            4.31526872060016        1.67649253267410       -0.16099259765581
H            4.76815299306280       -1.32779048517354        0.11287152064831
H            4.22821426040946       -0.50645234850353       -1.34866539987609
H            2.22138200135623        0.32406820927051       -0.12775496630651
H            2.74202743834766       -0.54509458691686        1.31441332638748
H            2.66606626429110       -2.68774912599725        0.02253979157499
H            2.04579811413252       -1.80813872646318       -1.37282759981685
H            0.67198213853453       -1.96521018442951        1.34748879174177
H            0.27896294500667       -2.97578262505870       -0.04165531543462
H           -0.30928449936646       -0.92583902519896       -1.34664292409621
H            0.00105668034743        0.05683311967629        0.08319492791819
H           -1.74820699915711       -1.20461563984053        1.32773104036959
H           -2.09011617961882       -2.14703314449528       -0.12052571226616
H           -2.33846207394590        0.88430835698631        0.10741460149434
H           -2.69200314059916       -0.05980335735610       -1.33670963745967
H           -4.12205989258749       -0.34741655348687        1.34169506151324
H           -4.48793574139150       -1.26748371071590       -0.11499606489042
H           -4.69093107624773        1.76409322676936        0.15513146687733
H           -5.05545501180888        0.84826611184185       -1.30455742711769
H           -6.85983643475187       -0.36406706046572       -0.10027730975383
H           -6.48754303305178        0.53391235348015        1.36940433393406
H           -7.06975774725647        2.66867489211880        0.21473541339208
H           -7.44140468760716        1.77199109226043       -1.25692136409407
H           -8.42820162736881        1.54176650268786        0.18867528124664
44
 energy: -45.308165658463 gnorm: 0.001258565684 xtb: 6.6.1 (8d0f1dd)
C            6.97943104688073        2.22564117065928        0.21257601063815
C            6.32925902673617        0.92729834066064       -0.25125414150686
C            4.87979754633639        0.82146978552055        0.21561042229071
C            4.20992218768056       -0.46612469131198       -0.25844297817178
C            2.76338824479390       -0.56160847308777        0.22117582367020
C            2.07541029953371       -1.82916479208353       -0.28065014238473
C            0.65279447294296       -1.99954856713609        0.25535092773949
C           -0.31672432980336       -0.93520581708952       -0.25333790667694
C           -1.74261656825659       -1.17613173660401        0.23693501060219
C           -2.69682687977223       -0.08578142885485       -0.24461087253145
C           -4.12437397854094       -0.30367396846675        0.24998990409308
C           -5.06451594884182        0.80651170661949       -0.21340120971861
C           -6.49401423602697        0.59335547480065        0.27805237876974
C           -7.42234747566219        1.71581914193898       -0.17099560878192
H            6.96726045614057        2.29072441020498        1.29842648932587
H            8.01220078144077        2.27958815285512       -0.12353663479739
H            6.44274280542812        3.08365350707985       -0.18650956515678
H            6.89607974212764        0.07819416738712        0.13701556659906
H            6.36136204319627        0.87494950064169       -1.34183857014433
H            4.84920548423589        0.86259796023306        1.30699582833461
H            4.31743379578887        1.67889007727973       -0.16183294160291
H            4.77404083198107       -1.32577847441247        0.11096569823571
H            4.23118135779775       -0.50326681922165       -1.35020675299198
H            2.22013516550267        0.31679256560798       -0.13045047559094
H            2.74458449248840       -0.54978974099119        1.31345468950373
H            2.66914588388954       -2.69407956603305        0.02541733996933
H            2.04997822063893       -1.81751298717361       -1.37278516429462
H            0.67430183160537       -1.97524971060250        1.34736365050883
H            0.28222052010860       -2.98284187058557       -0.04466828192388
H           -0.30707381350418       -0.93116909100537       -1.34574401609486
H            0.00670062837661        0.04998246692456        0.08587814736311
H           -1.74839642088434       -1.20389546458855        1.32908903424170
H           -2.09216839732253       -2.14801285654046       -0.11895302662226
H           -2.33922824088581        0.88460992267766        0.10791303431712
H           -2.69320872006459       -0.06046440228799       -1.33678724031852
H           -4.12553421393966       -0.34461109765646        1.34178049243172
H           -4.49156599963734       -1.26539424541279       -0.11572038646816
H           -4.69657535152473        1.76683260785802        0.15562733346288
H           -5.06107361203217        0.85034174985484       -1.30505862895181
H           -6.86706158385076       -0.36028668816229       -0.10199114091112
H           -6.49463788724867        0.53709103839687        1.36892498962007
H           -7.07730414275592        2.67250423665590        0.21519622268442
H           -7.44992236359358        1.77613546223919       -1.25681511191110
H           -8.43380770150310        1.54428004321229        0.18963980315124
44
 energy: -45.308169510746 gnorm: 0.000226406364 xtb: 6.6.1 (8d0f1dd)
C            6.98021710772270        2.22484566843633        0.21240297211844
C            6.32983438016507        0.92711964664291       -0.25127797921901
C            4.88043381770790        0.82140653804417        0.21586915648163
C            4.20994913947570       -0.46591314664287       -0.25766536163630
C            2.76325195021020       -0.56142123106409        0.22104877499193
C            2.07502392590496       -1.82875657161861       -0.28107671950192
C            0.65314474430765       -1.99893140744070        0.25582905435132
C           -0.31643656681402       -0.93487194991846       -0.25331794278977
C           -1.74248610612972       -1.17556715401899        0.23611566740063
C           -2.69716552473837       -0.08552219198181       -0.24485111199901
C           -4.12456784714777       -0.30387049469996        0.24984925177332
C           -5.06531651638834        0.80588300049827       -0.21298194347543
C           -6.49487178742003        0.59317042964656        0.27844504364526
C           -7.42261348352687        1.71525501519568       -0.17112309304704
H            6.96900453122237        2.28992379798337        1.29836691408893
H            8.01297142043781        2.27911606530485       -0.12412848074622
H            6.44374310794641        3.08337191111282       -0.18614337737486
H            6.89670538593392        0.07762414978268        0.13666926977226
H            6.36175654264119        0.87475654520170       -1.34208523742319
H            4.85038388713792        0.86289485355433        1.30745353569694
H            4.31833732306333        1.67925922472426       -0.16157495113319
H            4.77370046923997       -1.32580881206136        0.11233792359677
H            4.23155650653572       -0.50355852790505       -1.34960793278202
H            2.21964152928498        0.31685960000952       -0.13085606850557
H            2.74353567996768       -0.54975893091779        1.31353935912856
H            2.66935164828994       -2.69406751451086        0.02358638125982
H            2.04867296551606       -1.81637894696763       -1.37336557009253
H            0.67521581433292       -1.97368995925407        1.34800279292920
H            0.28204841218867       -2.98275620365217       -0.04275337334967
H           -0.30589040098567       -0.93097385185043       -1.34595723624822
H            0.00743448843765        0.05036508016273        0.08592665034852
H           -1.74844422002222       -1.20391852953748        1.32848101587236
H           -2.09178457553970       -2.14762558698567       -0.12025391395583
H           -2.33982745931050        0.88516311096828        0.10786520203599
H           -2.69378732975340       -0.05973455201251       -1.33725196688408
H           -4.12551313659750       -0.34515869079962        1.34184994346128
H           -4.49150450667074       -1.26588529701430       -0.11600114329886
H           -4.69747766911301        1.76649473019035        0.15599833426206
H           -5.06226166672450        0.84984997387797       -1.30484108027644
H           -6.86812693046414       -0.36083173293555       -0.10112571730616
H           -6.49568219304968        0.53722914614140        1.36955431751967
H           -7.07792287333810        2.67226800112057        0.21487932650277
H           -7.45014009403258        1.77545833819351       -1.25705405096086
H           -8.43449488990380        1.54435745699767        0.18901136476855
