44
 energy: -45.308169510790 gnorm: 0.000226500133 xtb: 6.6.1 (8d0f1dd)
C            6.98022949826380        2.22480949078037        0.21237472347439
C            6.32983835729330        0.92708606513526       -0.25130169263635
C            4.88043887200831        0.82138136089876        0.21585068692732
C            4.20994580045551       -0.46593563958411       -0.25767924395726
C            2.76324978217202       -0.56143531361006        0.22104010928622
C            2.07501336938259       -1.82876792695691       -0.28108077091736
C            0.65313517094072       -1.99893438076688        0.25583026323757
C           -0.31644234602889       -0.93487073516482       -0.25331520655649
C           -1.74249143714196       -1.17555761826990        0.23612380157451
C           -2.69716682717145       -0.08550849699618       -0.24484154784899
C           -4.12456856598574       -0.30384846244394        0.24986417958331
C           -5.06531304014861        0.80590915070153       -0.21296566871481
C           -6.49486770950283        0.59320492267987        0.27846667974488
C           -7.42260509966994        1.71529358121986       -0.17110017692162
H            6.96902105325078        2.28988957438012        1.29833859099313
H            8.01298292039781        2.27907389280709       -0.12416042910004
H            6.44375860253295        3.08333784682776       -0.18617125177931
H            6.89670626930299        0.07758827724692        0.13664506024821
H            6.36175643795094        0.87472089275292       -1.34210897087073
H            4.85039296902926        0.86287173890355        1.30743509861759
H            4.31834555154388        1.67923633193880       -0.16159295583310
H            4.77369391936917       -1.32583361101376        0.11232357421067
H            4.23154915879597       -0.50358303976097       -1.34962182481501
H            2.21964273153705        0.31684774960429       -0.13086436953948
H            2.74353738651501       -0.54977100349399        1.31353074188274
H            2.66933762448120       -2.69408144999680        0.02358176549945
H            2.04865866098588       -1.81639207071653       -1.37336955112047
H            0.67521018554484       -1.97369114196167        1.34800388070993
H            0.28203264528848       -2.98275775502670       -0.04274915199238
H           -0.30589997383100       -0.93097459931179       -1.34595454362314
H            0.00743505208952        0.05036519120380        0.08592653649295
H           -1.74844588639725       -1.20390705607412        1.32848922031816
H           -2.09179624019292       -2.14761484427501       -0.12024286393554
H           -2.33982244804478        0.88517555052105        0.10787182467272
H           -2.69379231037126       -0.05972278129466       -1.33724245952579
H           -4.12551025980821       -0.34513474771266        1.34186494662413
H           -4.49151153965545       -1.26586198199048       -0.11598325560293
H           -4.69746787514764        1.76651959836461        0.15601164843632
H           -5.06226177159192        0.84987420245167       -1.30482489290778
H           -6.86812917263275       -0.36079594799736       -0.10110111324953
H           -6.49567459934016        0.53726554774383        1.36957605407578
H           -7.07790813117939        2.67230543602862        0.21489936912529
H           -7.45013518557566        1.77549515305855       -1.25703114381579
H           -8.43448614373362        1.54440194976973        0.18903811129618
