 Entering Gaussian System
 *********************************************
 Gaussian 98:
 frequency output generated by the xtb code
 *********************************************
                         Standard orientation:
 --------------------------------------------------------------------
  Center     Atomic     Atomic              Coordinates (Angstroms)
  Number     Number      Type              X           Y           Z
 --------------------------------------------------------------------
    1          6             0        3.182549    0.223111   -0.000205
    2          6             0        1.868553   -0.548772   -0.001053
    3          6             0        0.659583    0.383833    0.002234
    4          6             0       -0.659766   -0.384265    0.001338
    5          6             0       -1.868479    0.548695   -0.002340
    6          6             0       -3.182864   -0.222510    0.000276
    7          1             0        3.255035    0.852161    0.884391
    8          1             0        3.250932    0.860877   -0.878878
    9          1             0        4.028350   -0.460576   -0.005554
   10          1             0        1.825869   -1.190112   -0.884280
   11          1             0        1.827388   -1.194884    0.878755
   12          1             0        0.701386    1.030177   -0.877732
   13          1             0        0.702695    1.025986    0.885179
   14          1             0       -0.703799   -1.027211    0.883665
   15          1             0       -0.700867   -1.029795   -0.879253
   16          1             0       -1.826502    1.195777    0.876710
   17          1             0       -1.826042    1.189020   -0.886308
   18          1             0       -3.255857   -0.849265    0.886455
   19          1             0       -4.028272    0.461641   -0.006944
   20          1             0       -3.251491   -0.862473   -0.876777
 --------------------------------------------------------------------
     1 basis functions        1 primitive gaussians
     1 alpha electrons        1 beta electrons
 
 Harmonic frequencies (cm**-1), IR intensities (km*mol⁻¹),
 Raman scattering activities (A**4/amu), Raman depolarization ratios,
 reduced masses (AMU), force constants (mDyne/A) and normal coordinates:
                      1                      2                      3
                        a                      a                      a 
 Frequencies --    67.8757                92.5891               134.8210
 Red. masses --     7.7824                 5.5945                 8.1868
 Frc consts  --     0.0000                 0.0000                 0.0000
 IR Inten    --     0.0054                 0.0022                 0.0901
 Raman Activ --     0.0000                 0.0000                 0.0000
 Depolar     --     0.0000                 0.0000                 0.0000
 Atom AN      X      Y      Z        X      Y      Z        X      Y      Z
   1   6    -0.00   0.00  -0.44     0.00  -0.00   0.08    -0.09   0.33  -0.12
   2   6    -0.00  -0.00   0.21     0.00  -0.00   0.27     0.14  -0.07   0.15
   3   6     0.00  -0.00   0.26     0.00   0.00  -0.36    -0.04  -0.30   0.24
   4   6    -0.00   0.00   0.26     0.00   0.00  -0.36    -0.04  -0.30  -0.24
   5   6     0.00   0.00   0.21    -0.00   0.00   0.27     0.14  -0.07  -0.15
   6   6     0.00  -0.00  -0.44     0.00  -0.00   0.08    -0.09   0.33   0.12
   7   1     0.07   0.10  -0.20    -0.06   0.16  -0.09    -0.06   0.15  -0.07
   8   1    -0.07  -0.10  -0.20     0.06  -0.16  -0.09    -0.12   0.06  -0.07
   9   1    -0.00  -0.00  -0.12     0.00  -0.00   0.20     0.04   0.17  -0.03
  10   1    -0.08  -0.08   0.12     0.04  -0.13   0.17     0.05  -0.04   0.06
  11   1     0.08   0.08   0.12    -0.04   0.13   0.17     0.12  -0.00   0.06
  12   1    -0.01  -0.00   0.07     0.06  -0.09  -0.17     0.01  -0.01   0.13
  13   1     0.01   0.00   0.07    -0.06   0.09  -0.17    -0.07  -0.16   0.13
  14   1    -0.01  -0.00   0.07     0.06  -0.09  -0.16    -0.07  -0.16  -0.13
  15   1     0.01   0.00   0.07    -0.06   0.09  -0.17     0.01  -0.01  -0.13
  16   1    -0.08  -0.08   0.12     0.04  -0.13   0.17     0.12  -0.00  -0.06
  17   1     0.08   0.08   0.12    -0.04   0.13   0.17     0.05  -0.04  -0.06
  18   1    -0.07  -0.10  -0.20     0.06  -0.16  -0.09    -0.06   0.14   0.07
  19   1     0.00   0.00  -0.12    -0.00   0.00   0.20     0.04   0.17   0.03
  20   1     0.07   0.10  -0.20    -0.06   0.16  -0.09    -0.12   0.06   0.07
                      4                      5                      6
                        a                      a                      a 
 Frequencies --   135.5802               227.3655               237.0185
 Red. masses --     7.6488                 1.8350                 2.3747
 Frc consts  --     0.0000                 0.0000                 0.0000
 IR Inten    --     0.0458                 0.0000                 0.0104
 Raman Activ --     0.0000                 0.0000                 0.0000
 Depolar     --     0.0000                 0.0000                 0.0000
 Atom AN      X      Y      Z        X      Y      Z        X      Y      Z
   1   6    -0.07   0.23   0.17    -0.00   0.00   0.04    -0.00  -0.00   0.03
   2   6     0.10  -0.05  -0.21     0.00  -0.00  -0.19    -0.00   0.00  -0.19
   3   6    -0.02  -0.21  -0.34     0.00  -0.00   0.03    -0.00   0.00   0.16
   4   6    -0.03  -0.21   0.34     0.00  -0.00  -0.03     0.00   0.00   0.16
   5   6     0.10  -0.05   0.21     0.00   0.00   0.19     0.00  -0.00  -0.19
   6   6    -0.07   0.23  -0.17    -0.00  -0.00  -0.04     0.00   0.00   0.03
   7   1    -0.10   0.01   0.09    -0.20   0.26  -0.15    -0.19   0.24  -0.15
   8   1    -0.02   0.13   0.10     0.20  -0.26  -0.16     0.19  -0.24  -0.15
   9   1     0.03   0.12   0.04     0.00  -0.00   0.41     0.00  -0.00   0.38
  10   1     0.11   0.01  -0.08     0.01   0.05  -0.09    -0.00   0.07  -0.11
  11   1     0.01  -0.04  -0.08    -0.01  -0.05  -0.09     0.00  -0.07  -0.11
  12   1    -0.08  -0.17  -0.18    -0.01   0.05   0.05    -0.03   0.06   0.09
  13   1     0.04   0.05  -0.18     0.01  -0.05   0.05     0.03  -0.06   0.09
  14   1     0.04   0.05   0.18     0.01  -0.05  -0.05    -0.03   0.06   0.09
  15   1    -0.08  -0.17   0.18    -0.01   0.05  -0.05     0.03  -0.06   0.09
  16   1     0.01  -0.04   0.08    -0.01  -0.05   0.09    -0.00   0.07  -0.11
  17   1     0.11   0.01   0.08     0.01   0.05   0.09     0.00  -0.07  -0.11
  18   1    -0.10   0.01  -0.09    -0.21   0.26   0.16     0.19  -0.24  -0.15
  19   1     0.03   0.12  -0.04     0.00  -0.00  -0.41    -0.00   0.00   0.38
  20   1    -0.02   0.13  -0.10     0.20  -0.26   0.16    -0.19   0.24  -0.15
                      7                      8                      9
                        a                      a                      a 
 Frequencies --   301.3721               370.7790               465.0023
 Red. masses --     8.5396                 9.5598                 8.5926
 Frc consts  --     0.0000                 0.0000                 0.0000
 IR Inten    --     0.0000                 0.0000                 0.3767
 Raman Activ --     0.0000                 0.0000                 0.0000
 Depolar     --     0.0000                 0.0000                 0.0000
 Atom AN      X      Y      Z        X      Y      Z        X      Y      Z
   1   6    -0.40   0.15   0.00     0.30   0.10   0.00     0.30  -0.01  -0.00
   2   6    -0.09  -0.33  -0.00     0.39  -0.18  -0.00     0.05   0.27   0.00
   3   6     0.06  -0.19  -0.00     0.20  -0.25   0.00    -0.36  -0.22  -0.00
   4   6    -0.06   0.19   0.00    -0.20   0.25   0.00    -0.36  -0.22   0.00
   5   6     0.09   0.33  -0.00    -0.39   0.18  -0.00     0.05   0.27  -0.00
   6   6     0.40  -0.15   0.00    -0.30  -0.10   0.00     0.30  -0.01   0.00
   7   1    -0.21   0.06  -0.00     0.05   0.03  -0.00     0.18  -0.02   0.00
   8   1    -0.21   0.06   0.00     0.05   0.03   0.00     0.18  -0.02  -0.00
   9   1    -0.01   0.17   0.00     0.12   0.07   0.00    -0.01  -0.13  -0.00
  10   1    -0.00  -0.09  -0.00     0.15  -0.05  -0.00     0.04   0.07   0.00
  11   1    -0.00  -0.09   0.00     0.16  -0.05   0.00     0.04   0.07  -0.00
  12   1     0.06  -0.06   0.00     0.10  -0.07   0.00    -0.17  -0.05   0.00
  13   1     0.06  -0.06  -0.00     0.10  -0.07  -0.00    -0.17  -0.05  -0.00
  14   1    -0.06   0.06  -0.00    -0.10   0.07  -0.00    -0.17  -0.05   0.00
  15   1    -0.06   0.05   0.00    -0.10   0.07   0.00    -0.17  -0.05  -0.00
  16   1     0.00   0.09   0.00    -0.15   0.05   0.00     0.04   0.07   0.00
  17   1     0.00   0.09  -0.00    -0.15   0.05  -0.00     0.04   0.07  -0.00
  18   1     0.21  -0.06  -0.00    -0.05  -0.03  -0.00     0.18  -0.02  -0.00
  19   1     0.01  -0.17   0.00    -0.12  -0.07   0.00    -0.01  -0.13   0.00
  20   1     0.21  -0.06   0.00    -0.05  -0.03   0.00     0.18  -0.02   0.00
                     10                     11                     12
                        a                      a                      a 
 Frequencies --   769.0665               785.9571               842.4614
 Red. masses --     1.6305                 1.9862                 2.4506
 Frc consts  --     0.0000                 0.0000                 0.0000
 IR Inten    --    12.7211                 0.0001                 3.4774
 Raman Activ --     0.0000                 0.0000                 0.0000
 Depolar     --     0.0000                 0.0000                 0.0000
 Atom AN      X      Y      Z        X      Y      Z        X      Y      Z
   1   6    -0.00   0.00  -0.01    -0.00  -0.00   0.03    -0.00  -0.00   0.09
   2   6    -0.00   0.00  -0.09     0.00  -0.00   0.18    -0.00   0.00   0.18
   3   6     0.00   0.00  -0.14     0.00   0.00   0.10    -0.00  -0.00  -0.16
   4   6    -0.00  -0.00  -0.14     0.00   0.00  -0.10     0.00   0.00  -0.16
   5   6     0.00  -0.00  -0.09     0.00  -0.00  -0.18     0.00   0.00   0.18
   6   6    -0.00  -0.00  -0.01    -0.00  -0.00  -0.03     0.00   0.00   0.09
   7   1    -0.07  -0.06   0.05     0.15   0.11  -0.09     0.21   0.14  -0.10
   8   1     0.07   0.06   0.05    -0.15  -0.11  -0.09    -0.21  -0.14  -0.10
   9   1     0.00   0.00   0.03    -0.00  -0.00  -0.07    -0.00  -0.00  -0.11
  10   1     0.03  -0.23   0.14     0.01   0.32  -0.19     0.13   0.20  -0.11
  11   1    -0.03   0.23   0.14    -0.01  -0.32  -0.19    -0.13  -0.20  -0.11
  12   1     0.04   0.33   0.21     0.09  -0.17  -0.10     0.14   0.18   0.10
  13   1    -0.04  -0.33   0.21    -0.09   0.17  -0.10    -0.14  -0.18   0.10
  14   1     0.04   0.33   0.21    -0.09   0.17   0.10     0.14   0.18   0.10
  15   1    -0.04  -0.33   0.21     0.09  -0.17   0.10    -0.14  -0.18   0.10
  16   1     0.03  -0.23   0.14    -0.01  -0.32   0.19     0.13   0.20  -0.11
  17   1    -0.03   0.23   0.14     0.01   0.32   0.19    -0.13  -0.20  -0.11
  18   1     0.07   0.06   0.05     0.15   0.11   0.09    -0.21  -0.14  -0.10
  19   1    -0.00   0.00   0.03    -0.00  -0.00   0.07     0.00   0.00  -0.11
  20   1    -0.07  -0.06   0.05    -0.15  -0.11   0.09     0.21   0.14  -0.10
                     13                     14                     15
                        a                      a                      a 
 Frequencies --   926.1055               940.0482               942.0173
 Red. masses --     2.5065                 5.4026                 6.6703
 Frc consts  --     0.0000                 0.0000                 0.0000
 IR Inten    --     0.0006                 0.0001                 6.8436
 Raman Activ --     0.0000                 0.0000                 0.0000
 Depolar     --     0.0000                 0.0000                 0.0000
 Atom AN      X      Y      Z        X      Y      Z        X      Y      Z
   1   6     0.00  -0.00   0.14     0.20  -0.12  -0.00     0.30  -0.05  -0.00
   2   6     0.00  -0.00   0.01     0.06  -0.16  -0.00     0.03  -0.24  -0.00
   3   6    -0.00   0.00  -0.22    -0.04   0.33   0.00    -0.26   0.20   0.00
   4   6    -0.00   0.00   0.22     0.04  -0.33   0.00    -0.26   0.19  -0.00
   5   6     0.00  -0.00  -0.01    -0.06   0.17  -0.00     0.03  -0.24   0.00
   6   6     0.00  -0.00  -0.14    -0.21   0.12  -0.00     0.30  -0.05   0.00
   7   1     0.23   0.15  -0.09    -0.19   0.02  -0.02    -0.13   0.03  -0.01
   8   1    -0.23  -0.15  -0.09    -0.19   0.02   0.02    -0.13   0.04   0.02
   9   1     0.00   0.00  -0.12     0.31   0.29   0.00     0.31   0.27   0.00
  10   1     0.25  -0.01  -0.01    -0.10  -0.03   0.00    -0.07  -0.06   0.00
  11   1    -0.25   0.01  -0.01    -0.11  -0.03   0.00    -0.07  -0.06  -0.00
  12   1    -0.11   0.20   0.09    -0.07   0.09  -0.00    -0.08   0.05   0.00
  13   1     0.11  -0.20   0.09    -0.07   0.09   0.00    -0.09   0.06  -0.00
  14   1     0.11  -0.20  -0.09     0.07  -0.09   0.00    -0.09   0.06   0.00
  15   1    -0.11   0.20  -0.09     0.07  -0.09  -0.00    -0.09   0.05  -0.00
  16   1    -0.25   0.01   0.01     0.11   0.03   0.00    -0.07  -0.06   0.00
  17   1     0.25  -0.01   0.01     0.10   0.03   0.00    -0.07  -0.06  -0.00
  18   1     0.23   0.15   0.09     0.19  -0.02  -0.02    -0.13   0.03   0.01
  19   1     0.00   0.00   0.12    -0.31  -0.29   0.00     0.31   0.27  -0.00
  20   1    -0.23  -0.15   0.09     0.19  -0.02   0.02    -0.13   0.03  -0.02
                     16                     17                     18
                        a                      a                      a 
 Frequencies --  1003.9855              1074.4819              1079.9027
 Red. masses --     1.8710                10.0985                 7.5366
 Frc consts  --     0.0000                 0.0000                 0.0000
 IR Inten    --     0.9128                 0.0000                 4.7482
 Raman Activ --     0.0000                 0.0000                 0.0000
 Depolar     --     0.0000                 0.0000                 0.0000
 Atom AN      X      Y      Z        X      Y      Z        X      Y      Z
   1   6    -0.00   0.00   0.13     0.29   0.20   0.00    -0.13  -0.31  -0.00
   2   6    -0.00   0.00  -0.14    -0.33  -0.19  -0.00     0.21   0.34   0.00
   3   6     0.00  -0.00   0.05    -0.31  -0.23  -0.00     0.12  -0.10  -0.00
   4   6    -0.00   0.00   0.05     0.31   0.23   0.00     0.12  -0.10   0.00
   5   6     0.00  -0.00  -0.14     0.33   0.19  -0.00     0.21   0.34  -0.00
   6   6     0.00  -0.00   0.13    -0.29  -0.20   0.00    -0.13  -0.31   0.00
   7   1     0.17   0.11  -0.06     0.11   0.05  -0.00    -0.24  -0.04  -0.01
   8   1    -0.16  -0.11  -0.06     0.11   0.05   0.00    -0.24  -0.04   0.01
   9   1    -0.00  -0.00  -0.08     0.07   0.04   0.00     0.13   0.13  -0.00
  10   1     0.24  -0.12   0.04    -0.10  -0.06   0.00    -0.04   0.10   0.00
  11   1    -0.23   0.12   0.04    -0.10  -0.05  -0.00    -0.04   0.10   0.00
  12   1    -0.33  -0.02  -0.02    -0.09  -0.07  -0.00    -0.12  -0.01   0.00
  13   1     0.34   0.02  -0.02    -0.09  -0.07   0.00    -0.12  -0.01  -0.00
  14   1    -0.34  -0.02  -0.02     0.09   0.07   0.00    -0.12  -0.01   0.00
  15   1     0.33   0.02  -0.02     0.09   0.07  -0.00    -0.12  -0.01  -0.00
  16   1     0.23  -0.12   0.04     0.10   0.06  -0.00    -0.04   0.10  -0.00
  17   1    -0.24   0.12   0.04     0.10   0.06   0.00    -0.04   0.10  -0.00
  18   1    -0.17  -0.11  -0.06    -0.11  -0.05  -0.00    -0.24  -0.04   0.01
  19   1     0.00   0.00  -0.08    -0.07  -0.04   0.00     0.13   0.13  -0.00
  20   1     0.16   0.11  -0.06    -0.11  -0.05   0.00    -0.24  -0.04  -0.01
                     19                     20                     21
                        a                      a                      a 
 Frequencies --  1108.5390              1118.8446              1150.1337
 Red. masses --     7.6447                 8.0237                 8.2081
 Frc consts  --     0.0000                 0.0000                 0.0000
 IR Inten    --     0.0000                 2.7569                 0.0000
 Raman Activ --     0.0000                 0.0000                 0.0000
 Depolar     --     0.0000                 0.0000                 0.0000
 Atom AN      X      Y      Z        X      Y      Z        X      Y      Z
   1   6    -0.12  -0.15   0.00     0.22   0.08  -0.00    -0.06   0.19   0.00
   2   6     0.26   0.01  -0.00    -0.37   0.11   0.00     0.07  -0.37  -0.00
   3   6    -0.42  -0.14   0.00     0.25  -0.23   0.00    -0.07   0.38   0.00
   4   6     0.42   0.14   0.00     0.25  -0.23  -0.00     0.06  -0.38   0.00
   5   6    -0.26  -0.01  -0.00    -0.37   0.11  -0.00    -0.07   0.37  -0.00
   6   6     0.12   0.15  -0.00     0.22   0.08  -0.00     0.06  -0.19   0.00
   7   1    -0.08  -0.03  -0.00     0.00   0.05  -0.01     0.17  -0.00   0.02
   8   1    -0.08  -0.04  -0.00     0.00   0.05   0.01     0.17  -0.00  -0.02
   9   1    -0.00  -0.00  -0.00     0.11   0.10   0.00    -0.17  -0.15  -0.00
  10   1     0.18  -0.01   0.00    -0.26   0.04   0.00     0.11  -0.10  -0.00
  11   1     0.18  -0.01  -0.00    -0.26   0.04  -0.00     0.11  -0.10   0.00
  12   1    -0.25  -0.03   0.00     0.04  -0.07  -0.01    -0.04   0.09  -0.00
  13   1    -0.24  -0.03   0.00     0.04  -0.07   0.01    -0.04   0.09   0.00
  14   1     0.24   0.03   0.00     0.04  -0.07  -0.00     0.04  -0.09   0.00
  15   1     0.25   0.03   0.00     0.04  -0.07   0.01     0.04  -0.09  -0.00
  16   1    -0.18   0.01  -0.00    -0.26   0.04   0.00    -0.11   0.10   0.00
  17   1    -0.18   0.01   0.00    -0.26   0.04  -0.00    -0.11   0.10  -0.00
  18   1     0.08   0.03  -0.00     0.00   0.05   0.01    -0.17   0.00   0.02
  19   1     0.00   0.00  -0.00     0.12   0.10  -0.00     0.17   0.15  -0.00
  20   1     0.08   0.04  -0.00     0.00   0.05  -0.01    -0.17   0.00  -0.02
                     22                     23                     24
                        a                      a                      a 
 Frequencies --  1200.1716              1229.8762              1260.4560
 Red. masses --     6.4904                 4.5679                 3.5849
 Frc consts  --     0.0000                 0.0000                 0.0000
 IR Inten    --     0.0000                 0.6976                 1.0957
 Raman Activ --     0.0000                 0.0000                 0.0000
 Depolar     --     0.0000                 0.0000                 0.0000
 Atom AN      X      Y      Z        X      Y      Z        X      Y      Z
   1   6    -0.00   0.00  -0.20     0.00  -0.00   0.25     0.04  -0.13   0.00
   2   6    -0.00   0.00   0.32    -0.00   0.00  -0.30    -0.15   0.17   0.00
   3   6    -0.00  -0.00  -0.33     0.00  -0.00   0.10    -0.21  -0.06  -0.00
   4   6    -0.00   0.00   0.33    -0.00   0.00   0.10    -0.21  -0.06   0.00
   5   6    -0.00  -0.00  -0.32     0.00  -0.00  -0.30    -0.15   0.17   0.00
   6   6     0.00   0.00   0.20    -0.00   0.00   0.25     0.04  -0.13  -0.00
   7   1    -0.16  -0.12   0.05     0.18   0.14  -0.06    -0.07   0.01  -0.02
   8   1     0.16   0.12   0.05    -0.18  -0.14  -0.06    -0.07   0.01   0.02
   9   1     0.00   0.00   0.09    -0.00   0.00  -0.10     0.11   0.10  -0.00
  10   1     0.01   0.19  -0.06    -0.19  -0.15   0.05     0.18   0.02   0.01
  11   1    -0.01  -0.18  -0.06     0.19   0.15   0.05     0.19   0.02  -0.01
  12   1     0.04   0.19   0.06     0.21  -0.07  -0.02     0.37  -0.04   0.00
  13   1    -0.04  -0.19   0.06    -0.21   0.07  -0.02     0.37  -0.04  -0.00
  14   1    -0.04  -0.19  -0.06     0.21  -0.07  -0.02     0.37  -0.04   0.00
  15   1     0.04   0.19  -0.06    -0.21   0.07  -0.02     0.37  -0.04  -0.00
  16   1    -0.01  -0.18   0.06    -0.19  -0.15   0.05     0.19   0.02   0.01
  17   1     0.01   0.19   0.06     0.19   0.15   0.05     0.18   0.02  -0.01
  18   1    -0.16  -0.12  -0.05    -0.18  -0.14  -0.06    -0.07   0.01   0.02
  19   1     0.00   0.00  -0.09     0.00  -0.00  -0.10     0.11   0.10   0.00
  20   1     0.16   0.12  -0.05     0.18   0.14  -0.06    -0.07   0.01  -0.02
                     25                     26                     27
                        a                      a                      a 
 Frequencies --  1268.6843              1283.7195              1292.9571
 Red. masses --     2.5369                 1.9511                 2.1385
 Frc consts  --     0.0000                 0.0000                 0.0000
 IR Inten    --     0.0001                 0.0000                 0.0150
 Raman Activ --     0.0000                 0.0000                 0.0000
 Depolar     --     0.0000                 0.0000                 0.0000
 Atom AN      X      Y      Z        X      Y      Z        X      Y      Z
   1   6     0.00   0.00   0.17    -0.00   0.00  -0.05     0.00  -0.00   0.09
   2   6     0.00  -0.00  -0.01     0.00  -0.00   0.14    -0.00   0.00   0.10
   3   6     0.00   0.00  -0.20    -0.00   0.00   0.15    -0.00   0.00  -0.18
   4   6     0.00   0.00   0.20     0.00   0.00  -0.15     0.00  -0.00  -0.18
   5   6     0.00  -0.00   0.01     0.00  -0.00  -0.14     0.00  -0.00   0.10
   6   6    -0.00   0.00  -0.17    -0.00   0.00   0.05    -0.00   0.00   0.09
   7   1     0.11   0.09  -0.03    -0.03  -0.03   0.02     0.06   0.04  -0.01
   8   1    -0.11  -0.09  -0.03     0.03   0.03   0.02    -0.06  -0.04  -0.01
   9   1    -0.00  -0.00  -0.05    -0.00  -0.00   0.04     0.00   0.00  -0.01
  10   1    -0.42   0.02   0.00    -0.03   0.07  -0.01    -0.36   0.07  -0.01
  11   1     0.42  -0.02  -0.00     0.03  -0.07  -0.01     0.37  -0.08  -0.01
  12   1    -0.04   0.11   0.03    -0.47  -0.04  -0.02    -0.26   0.11   0.02
  13   1     0.04  -0.11   0.03     0.46   0.04  -0.02     0.26  -0.11   0.02
  14   1     0.04  -0.11  -0.03     0.47   0.04   0.02    -0.26   0.11   0.02
  15   1    -0.04   0.11  -0.03    -0.47  -0.04   0.02     0.26  -0.11   0.02
  16   1     0.42  -0.02   0.00     0.03  -0.07   0.01    -0.37   0.07  -0.01
  17   1    -0.42   0.02  -0.00    -0.03   0.07   0.01     0.36  -0.07  -0.01
  18   1     0.11   0.09   0.03    -0.03  -0.03  -0.02    -0.06  -0.04  -0.01
  19   1    -0.00  -0.00   0.05     0.00  -0.00  -0.04    -0.00  -0.00  -0.01
  20   1    -0.11  -0.09   0.03     0.03   0.03  -0.02     0.06   0.04  -0.01
                     28                     29                     30
                        a                      a                      a 
 Frequencies --  1319.5647              1364.0879              1379.4192
 Red. masses --     3.8980                 4.7073                 5.7051
 Frc consts  --     0.0000                 0.0000                 0.0000
 IR Inten    --     0.0000                 1.5230                 0.0000
 Raman Activ --     0.0000                 0.0000                 0.0000
 Depolar     --     0.0000                 0.0000                 0.0000
 Atom AN      X      Y      Z        X      Y      Z        X      Y      Z
   1   6    -0.04   0.12   0.00     0.03  -0.08  -0.00    -0.05   0.02   0.00
   2   6     0.28  -0.06   0.00    -0.34  -0.00   0.00     0.24   0.01  -0.00
   3   6     0.15  -0.10  -0.00     0.20   0.04  -0.00    -0.39   0.04   0.00
   4   6    -0.15   0.10  -0.00     0.20   0.04   0.00     0.39  -0.04   0.00
   5   6    -0.28   0.06   0.00    -0.34  -0.00  -0.00    -0.24  -0.01  -0.00
   6   6     0.04  -0.12   0.00     0.03  -0.08   0.00     0.05  -0.02   0.00
   7   1     0.01  -0.03   0.03     0.02   0.04  -0.04     0.01  -0.02   0.02
   8   1     0.01  -0.03  -0.04     0.02   0.04   0.04     0.01  -0.02  -0.02
   9   1    -0.12  -0.11  -0.00     0.09   0.09   0.00    -0.03  -0.01  -0.00
  10   1    -0.35   0.01  -0.00     0.33  -0.01  -0.01    -0.19   0.00   0.01
  11   1    -0.34   0.01   0.00     0.33  -0.01   0.01    -0.19   0.00  -0.01
  12   1    -0.23   0.02   0.01    -0.21   0.00  -0.02     0.33  -0.02  -0.01
  13   1    -0.22   0.01  -0.01    -0.21   0.00   0.02     0.33  -0.02   0.00
  14   1     0.22  -0.01  -0.01    -0.21   0.00  -0.02    -0.32   0.02   0.00
  15   1     0.23  -0.02   0.01    -0.21   0.00   0.02    -0.33   0.03  -0.01
  16   1     0.34  -0.01   0.00     0.33  -0.01  -0.01     0.19  -0.00  -0.01
  17   1     0.35  -0.01  -0.00     0.33  -0.01   0.01     0.19  -0.00   0.01
  18   1    -0.01   0.03   0.03     0.02   0.04   0.04    -0.01   0.02   0.02
  19   1     0.12   0.11  -0.00     0.09   0.09  -0.00     0.02   0.01  -0.00
  20   1    -0.01   0.03  -0.04     0.02   0.04  -0.04    -0.01   0.02  -0.02
                     31                     32                     33
                        a                      a                      a 
 Frequencies --  1415.9743              1416.1179              1495.8235
 Red. masses --     3.1509                 3.2113                 1.9158
 Frc consts  --     0.0000                 0.0000                 0.0000
 IR Inten    --     0.0000                 1.7620                 0.0002
 Raman Activ --     0.0000                 0.0000                 0.0000
 Depolar     --     0.0000                 0.0000                 0.0000
 Atom AN      X      Y      Z        X      Y      Z        X      Y      Z
   1   6     0.27   0.14   0.00    -0.28  -0.14  -0.00    -0.00   0.04   0.00
   2   6    -0.05   0.01  -0.00     0.07  -0.01  -0.00    -0.03  -0.13  -0.00
   3   6    -0.02   0.02   0.00    -0.02  -0.01  -0.00    -0.04  -0.15  -0.00
   4   6     0.02  -0.02   0.00    -0.02  -0.01   0.00     0.04   0.14  -0.00
   5   6     0.05  -0.01  -0.00     0.07  -0.01  -0.00     0.03   0.13  -0.00
   6   6    -0.27  -0.14   0.00    -0.27  -0.14   0.00     0.00  -0.04   0.00
   7   1    -0.33  -0.10   0.11     0.33   0.09  -0.10     0.01  -0.11   0.08
   8   1    -0.33  -0.09  -0.10     0.34   0.09   0.10     0.01  -0.11  -0.08
   9   1    -0.22  -0.29  -0.00     0.21   0.29   0.00     0.03   0.04  -0.00
  10   1     0.05  -0.03   0.02    -0.06   0.03  -0.02     0.03   0.24  -0.18
  11   1     0.05  -0.03  -0.02    -0.06   0.03   0.02     0.03   0.23   0.18
  12   1     0.03   0.00  -0.00     0.02  -0.01  -0.00     0.04   0.28   0.21
  13   1     0.03   0.00   0.00     0.02  -0.01   0.00     0.04   0.28  -0.21
  14   1    -0.03  -0.00   0.00     0.02  -0.01  -0.00    -0.04  -0.27  -0.20
  15   1    -0.03  -0.00  -0.00     0.02  -0.01   0.00    -0.04  -0.27   0.20
  16   1    -0.05   0.03  -0.02    -0.06   0.03  -0.02    -0.03  -0.24   0.19
  17   1    -0.05   0.03   0.02    -0.06   0.03   0.02    -0.03  -0.25  -0.18
  18   1     0.33   0.10   0.11     0.33   0.09   0.10    -0.01   0.11   0.08
  19   1     0.22   0.29  -0.00     0.21   0.28  -0.00    -0.03  -0.04  -0.00
  20   1     0.34   0.09  -0.11     0.33   0.09  -0.10    -0.01   0.11  -0.08
                     34                     35                     36
                        a                      a                      a 
 Frequencies --  1496.4352              1500.1288              1502.5956
 Red. masses --     1.8502                 1.9875                 1.7984
 Frc consts  --     0.0000                 0.0000                 0.0000
 IR Inten    --     0.2117                 0.6093                 0.0014
 Raman Activ --     0.0000                 0.0000                 0.0000
 Depolar     --     0.0000                 0.0000                 0.0000
 Atom AN      X      Y      Z        X      Y      Z        X      Y      Z
   1   6    -0.01  -0.02   0.00     0.01  -0.04  -0.00     0.02  -0.00  -0.00
   2   6    -0.01   0.15   0.00     0.04   0.11   0.00     0.00  -0.15  -0.00
   3   6     0.02  -0.12  -0.00     0.00   0.17   0.00     0.00   0.12   0.00
   4   6     0.01  -0.13   0.00     0.00   0.17  -0.00    -0.00  -0.12   0.00
   5   6    -0.01   0.15  -0.00     0.04   0.11  -0.00    -0.00   0.15  -0.00
   6   6    -0.01  -0.02  -0.00     0.01  -0.04   0.00    -0.02   0.00  -0.00
   7   1     0.01   0.06  -0.04    -0.01   0.12  -0.08    -0.02   0.01  -0.00
   8   1     0.01   0.06   0.04    -0.01   0.12   0.08    -0.03   0.01   0.01
   9   1    -0.00  -0.00  -0.00    -0.04  -0.05   0.00    -0.02  -0.03   0.01
  10   1    -0.01  -0.30   0.22    -0.03  -0.22   0.16     0.00   0.29  -0.22
  11   1    -0.01  -0.30  -0.22    -0.03  -0.21  -0.16     0.01   0.29   0.22
  12   1    -0.01   0.23   0.17    -0.02  -0.29  -0.22    -0.01  -0.25  -0.19
  13   1    -0.01   0.23  -0.17    -0.02  -0.29   0.22    -0.01  -0.25   0.18
  14   1    -0.00   0.24   0.18    -0.02  -0.29  -0.22     0.02   0.25   0.19
  15   1    -0.00   0.24  -0.18    -0.02  -0.29   0.22     0.01   0.25  -0.19
  16   1    -0.01  -0.29   0.22    -0.03  -0.22   0.16    -0.01  -0.29   0.22
  17   1    -0.01  -0.29  -0.22    -0.03  -0.22  -0.16    -0.00  -0.29  -0.21
  18   1     0.01   0.05   0.04    -0.01   0.12   0.08     0.02  -0.01  -0.00
  19   1    -0.00  -0.00   0.00    -0.04  -0.05  -0.00     0.02   0.03   0.01
  20   1     0.02   0.05  -0.04    -0.01   0.12  -0.09     0.03  -0.01   0.01
                     37                     38                     39
                        a                      a                      a 
 Frequencies --  1504.7999              1504.8460              1507.8056
 Red. masses --     1.5327                 1.5326                 1.6747
 Frc consts  --     0.0000                 0.0000                 0.0000
 IR Inten    --     4.7935                 0.0602                 2.2684
 Raman Activ --     0.0000                 0.0000                 0.0000
 Depolar     --     0.0000                 0.0000                 0.0000
 Atom AN      X      Y      Z        X      Y      Z        X      Y      Z
   1   6    -0.00   0.00  -0.13    -0.00   0.00  -0.17    -0.07   0.13   0.00
   2   6    -0.00   0.00  -0.03    -0.00  -0.00  -0.04    -0.03   0.09   0.00
   3   6    -0.00  -0.00   0.01     0.00  -0.00  -0.00     0.01   0.03   0.00
   4   6     0.00   0.00   0.00     0.00  -0.00   0.00     0.01   0.03   0.00
   5   6     0.00  -0.00  -0.04    -0.00   0.00   0.03    -0.03   0.08  -0.00
   6   6     0.00  -0.00  -0.17    -0.00   0.00   0.13    -0.07   0.13  -0.00
   7   1     0.27  -0.11   0.05     0.33  -0.14   0.06     0.07  -0.35   0.25
   8   1    -0.27   0.11   0.05    -0.33   0.14   0.06     0.07  -0.35  -0.25
   9   1     0.00  -0.00   0.45     0.00  -0.00   0.56     0.13   0.18   0.00
  10   1    -0.01  -0.02   0.00    -0.01  -0.01  -0.00     0.02  -0.10   0.08
  11   1     0.01   0.01  -0.00     0.01   0.01   0.00     0.02  -0.10  -0.08
  12   1     0.01   0.00   0.00     0.02   0.00   0.00    -0.01  -0.07  -0.05
  13   1    -0.01   0.01  -0.00    -0.02   0.00  -0.00    -0.01  -0.07   0.05
  14   1     0.01  -0.01  -0.01    -0.01   0.00   0.00    -0.01  -0.07  -0.05
  15   1    -0.01  -0.00   0.00     0.02   0.00  -0.00    -0.01  -0.07   0.05
  16   1    -0.01  -0.01  -0.00     0.01   0.01   0.00     0.02  -0.10   0.08
  17   1     0.01   0.02   0.00    -0.01  -0.01  -0.00     0.02  -0.10  -0.08
  18   1    -0.33   0.14   0.06     0.27  -0.11  -0.05     0.07  -0.34  -0.24
  19   1    -0.00   0.00   0.56     0.00  -0.00  -0.45     0.13   0.18  -0.00
  20   1     0.33  -0.14   0.06    -0.27   0.11  -0.05     0.07  -0.34   0.25
                     40                     41                     42
                        a                      a                      a 
 Frequencies --  1508.0695              2955.3222              2960.3864
 Red. masses --     1.6237                 1.8975                 1.9527
 Frc consts  --     0.0000                 0.0000                 0.0000
 IR Inten    --     0.0002                 0.0005                 0.6377
 Raman Activ --     0.0000                 0.0000                 0.0000
 Depolar     --     0.0000                 0.0000                 0.0000
 Atom AN      X      Y      Z        X      Y      Z        X      Y      Z
   1   6    -0.07   0.13   0.00    -0.00   0.00   0.00    -0.00   0.00   0.01
   2   6    -0.03   0.06   0.00    -0.00   0.00  -0.08    -0.00   0.00  -0.16
   3   6     0.02   0.04   0.00     0.00  -0.00   0.19     0.00  -0.00   0.13
   4   6    -0.02  -0.04   0.00     0.00  -0.00  -0.19    -0.00   0.00   0.13
   5   6     0.03  -0.06   0.00    -0.00   0.00   0.08     0.00  -0.00  -0.16
   6   6     0.07  -0.13   0.00    -0.00   0.00  -0.00     0.00  -0.00   0.01
   7   1     0.07  -0.35   0.25    -0.00  -0.01  -0.01    -0.00  -0.02  -0.03
   8   1     0.07  -0.35  -0.25     0.00   0.01  -0.01     0.00   0.02  -0.03
   9   1     0.13   0.18   0.00     0.00  -0.00   0.00     0.00  -0.00   0.00
  10   1     0.02  -0.05   0.04     0.01   0.11   0.15     0.01   0.22   0.29
  11   1     0.02  -0.05  -0.04    -0.01  -0.12   0.15    -0.01  -0.22   0.29
  12   1    -0.02  -0.09  -0.07     0.02   0.27  -0.35     0.01   0.19  -0.24
  13   1    -0.02  -0.09   0.07    -0.02  -0.27  -0.35    -0.01  -0.18  -0.24
  14   1     0.02   0.10   0.07    -0.02  -0.27   0.35     0.01   0.18  -0.24
  15   1     0.02   0.10  -0.07     0.02   0.27   0.35    -0.01  -0.19  -0.24
  16   1    -0.02   0.05  -0.04    -0.01  -0.11  -0.15     0.01   0.22   0.29
  17   1    -0.02   0.05   0.04     0.01   0.11  -0.15    -0.01  -0.22   0.29
  18   1    -0.07   0.36   0.25    -0.00  -0.01   0.01     0.00   0.02  -0.03
  19   1    -0.13  -0.18   0.00     0.00  -0.00  -0.00    -0.00   0.00   0.00
  20   1    -0.07   0.35  -0.26     0.00   0.01   0.01    -0.00  -0.02  -0.03
                     43                     44                     45
                        a                      a                      a 
 Frequencies --  2968.7829              2975.3346              2975.5320
 Red. masses --     2.0062                 1.4483                 1.4653
 Frc consts  --     0.0000                 0.0000                 0.0000
 IR Inten    --     0.0008                 0.1284                 0.1381
 Raman Activ --     0.0000                 0.0000                 0.0000
 Depolar     --     0.0000                 0.0000                 0.0000
 Atom AN      X      Y      Z        X      Y      Z        X      Y      Z
   1   6     0.00   0.00  -0.02     0.00  -0.01   0.00    -0.00   0.00   0.00
   2   6     0.00   0.00   0.19    -0.00   0.00  -0.00    -0.01  -0.10  -0.00
   3   6     0.00  -0.00   0.09     0.01   0.14  -0.00     0.01   0.10  -0.00
   4   6     0.00  -0.00  -0.08    -0.01  -0.14  -0.00     0.01   0.11  -0.00
   5   6     0.00  -0.00  -0.19     0.00  -0.01  -0.00    -0.01  -0.10  -0.00
   6   6     0.00   0.00   0.02    -0.00   0.01   0.00    -0.00   0.00   0.00
   7   1     0.00   0.04   0.05     0.00   0.01   0.02    -0.00  -0.01  -0.01
   8   1    -0.00  -0.04   0.05     0.00   0.01  -0.02    -0.00  -0.01   0.01
   9   1    -0.00   0.00  -0.00    -0.01   0.01   0.00     0.01  -0.01  -0.00
  10   1    -0.02  -0.26  -0.35    -0.00   0.01   0.02     0.01   0.19   0.29
  11   1     0.02   0.26  -0.34    -0.00   0.00  -0.00     0.01   0.19  -0.29
  12   1     0.01   0.11  -0.15    -0.02  -0.28   0.42    -0.01  -0.18   0.28
  13   1    -0.01  -0.11  -0.15    -0.02  -0.27  -0.41    -0.01  -0.18  -0.28
  14   1    -0.01  -0.11   0.15     0.02   0.26  -0.39    -0.01  -0.20   0.30
  15   1     0.01   0.11   0.15     0.02   0.27   0.41    -0.01  -0.19  -0.30
  16   1     0.02   0.26   0.34     0.00   0.01   0.01     0.01   0.19   0.29
  17   1    -0.02  -0.26   0.35     0.00  -0.01   0.01     0.01   0.19  -0.29
  18   1     0.00   0.04  -0.05    -0.00  -0.01   0.02    -0.00  -0.00   0.01
  19   1    -0.00   0.00   0.00     0.01  -0.01   0.00     0.01  -0.01   0.00
  20   1    -0.00  -0.04  -0.05    -0.00  -0.01  -0.02    -0.00  -0.01  -0.01
                     46                     47                     48
                        a                      a                      a 
 Frequencies --  2978.2264              2981.6199              2988.6951
 Red. masses --     2.0474                 1.4813                 1.5250
 Frc consts  --     0.0000                 0.0000                 0.0000
 IR Inten    --   178.5536                 0.0015               136.7483
 Raman Activ --     0.0000                 0.0000                 0.0000
 Depolar     --     0.0000                 0.0000                 0.0000
 Atom AN      X      Y      Z        X      Y      Z        X      Y      Z
   1   6    -0.00   0.00   0.02    -0.01   0.02   0.00    -0.01   0.03   0.00
   2   6    -0.00   0.00  -0.13    -0.01  -0.14  -0.00    -0.01  -0.10  -0.00
   3   6    -0.00  -0.00  -0.17     0.00  -0.01  -0.00    -0.01  -0.11  -0.00
   4   6     0.00   0.00  -0.17    -0.00   0.01  -0.00    -0.01  -0.11   0.00
   5   6     0.00   0.00  -0.14     0.01   0.14  -0.00    -0.01  -0.10  -0.00
   6   6     0.00  -0.00   0.02     0.01  -0.02   0.00    -0.01   0.03   0.00
   7   1    -0.00  -0.04  -0.05    -0.00  -0.02  -0.03    -0.00  -0.03  -0.05
   8   1     0.00   0.04  -0.05    -0.00  -0.02   0.03    -0.00  -0.03   0.05
   9   1     0.00  -0.00   0.00     0.04  -0.03  -0.00     0.05  -0.04  -0.00
  10   1     0.01   0.18   0.23     0.02   0.26   0.41     0.01   0.18   0.28
  11   1    -0.01  -0.18   0.24     0.02   0.27  -0.41     0.01   0.18  -0.28
  12   1    -0.01  -0.21   0.28    -0.00   0.00  -0.00     0.01   0.19  -0.29
  13   1     0.02   0.23   0.30    -0.00   0.00   0.00     0.01   0.19   0.29
  14   1    -0.02  -0.23   0.30     0.00  -0.00   0.00     0.01   0.19  -0.29
  15   1     0.01   0.21   0.28     0.00   0.00  -0.00     0.01   0.19   0.29
  16   1     0.01   0.18   0.24    -0.02  -0.27  -0.41     0.01   0.19   0.28
  17   1    -0.01  -0.18   0.24    -0.02  -0.26   0.41     0.01   0.18  -0.28
  18   1     0.00   0.04  -0.05     0.00   0.02  -0.03    -0.00  -0.03   0.05
  19   1    -0.00   0.00   0.00    -0.04   0.03  -0.00     0.05  -0.04   0.00
  20   1    -0.00  -0.04  -0.05     0.00   0.02   0.03    -0.00  -0.03  -0.05
                     49                     50                     51
                        a                      a                      a 
 Frequencies --  3030.2336              3030.7293              3032.4114
 Red. masses --     1.9584                 1.9595                 1.9313
 Frc consts  --     0.0000                 0.0000                 0.0000
 IR Inten    --     0.0775               122.3469                 0.1582
 Raman Activ --     0.0000                 0.0000                 0.0000
 Depolar     --     0.0000                 0.0000                 0.0000
 Atom AN      X      Y      Z        X      Y      Z        X      Y      Z
   1   6    -0.00   0.00  -0.21     0.00  -0.01   0.20     0.09  -0.19  -0.01
   2   6    -0.00   0.00  -0.03     0.00  -0.00   0.03     0.00  -0.02  -0.00
   3   6     0.00   0.00  -0.01     0.00  -0.00   0.01    -0.00  -0.01  -0.00
   4   6    -0.00   0.00   0.01    -0.00   0.00   0.01     0.00   0.01  -0.00
   5   6     0.00   0.00   0.03    -0.00   0.00   0.03    -0.00   0.02  -0.00
   6   6    -0.00   0.00   0.20    -0.00   0.01   0.21    -0.09   0.18  -0.01
   7   1     0.02   0.29   0.38    -0.02  -0.27  -0.36     0.03   0.18   0.30
   8   1    -0.02  -0.30   0.39     0.02   0.29  -0.37     0.03   0.17  -0.28
   9   1     0.00  -0.00  -0.03    -0.01   0.01   0.03    -0.38   0.31   0.00
  10   1     0.00   0.03   0.05    -0.00  -0.04  -0.05     0.00   0.03   0.04
  11   1    -0.00  -0.03   0.05     0.00   0.04  -0.05     0.00   0.03  -0.04
  12   1     0.00  -0.01   0.01     0.00   0.02  -0.02    -0.00   0.01  -0.02
  13   1    -0.00   0.01   0.01    -0.00  -0.02  -0.02    -0.00   0.01   0.02
  14   1    -0.00   0.01  -0.01     0.00   0.02  -0.02     0.00  -0.01   0.02
  15   1     0.00  -0.01  -0.01    -0.00  -0.02  -0.02     0.00  -0.01  -0.02
  16   1    -0.00  -0.03  -0.05    -0.00  -0.04  -0.05    -0.00  -0.03  -0.04
  17   1     0.00   0.03  -0.04     0.00   0.04  -0.05    -0.00  -0.03   0.04
  18   1     0.02   0.28  -0.37     0.02   0.28  -0.38    -0.03  -0.17   0.29
  19   1     0.00  -0.00   0.03     0.01  -0.00   0.03     0.37  -0.29   0.00
  20   1    -0.02  -0.29  -0.37    -0.02  -0.30  -0.39    -0.03  -0.16  -0.27
                     52                     53                     54
                        a                      a                      a 
 Frequencies --  3032.9919              3037.7394              3038.5164
 Red. masses --     1.9358                 1.2532                 1.2615
 Frc consts  --     0.0000                 0.0000                 0.0000
 IR Inten    --   121.6226                63.2995                 0.0222
 Raman Activ --     0.0000                 0.0000                 0.0000
 Depolar     --     0.0000                 0.0000                 0.0000
 Atom AN      X      Y      Z        X      Y      Z        X      Y      Z
   1   6     0.09  -0.18  -0.00    -0.10  -0.03  -0.00     0.10   0.02   0.00
   2   6     0.00  -0.02  -0.00    -0.00  -0.01  -0.00     0.00   0.00   0.00
   3   6    -0.00  -0.01  -0.00     0.00  -0.00  -0.00    -0.00   0.00   0.00
   4   6    -0.00  -0.01   0.00     0.00  -0.00   0.00     0.00  -0.00   0.00
   5   6     0.00  -0.03   0.00    -0.00  -0.01   0.00    -0.00  -0.00   0.00
   6   6     0.10  -0.18   0.00    -0.10  -0.03   0.00    -0.11  -0.02   0.00
   7   1     0.03   0.16   0.26     0.01   0.22   0.31    -0.01  -0.20  -0.29
   8   1     0.03   0.15  -0.25     0.01   0.22  -0.31    -0.00  -0.20   0.28
   9   1    -0.38   0.31   0.00     0.35  -0.31  -0.00    -0.36   0.31   0.00
  10   1     0.00   0.03   0.05    -0.00   0.01   0.01     0.00  -0.00  -0.00
  11   1     0.00   0.03  -0.05    -0.00   0.01  -0.01     0.00  -0.00   0.00
  12   1     0.00   0.02  -0.04     0.00   0.01  -0.01     0.00  -0.00   0.01
  13   1     0.00   0.02   0.04     0.00   0.01   0.01     0.00  -0.00  -0.01
  14   1     0.00   0.02  -0.04     0.00   0.01  -0.01    -0.00   0.00  -0.01
  15   1     0.00   0.02   0.04     0.00   0.01   0.01    -0.00   0.00   0.01
  16   1     0.00   0.03   0.05    -0.00   0.01   0.01    -0.00   0.00   0.00
  17   1     0.00   0.04  -0.05    -0.00   0.01  -0.01    -0.00   0.00  -0.00
  18   1     0.03   0.16  -0.28     0.01   0.21  -0.30     0.01   0.21  -0.30
  19   1    -0.40   0.32  -0.00     0.34  -0.30   0.00     0.37  -0.32   0.00
  20   1     0.03   0.16   0.27     0.01   0.21   0.30     0.00   0.21   0.29
