 Entering Gaussian System
 *********************************************
 Gaussian 98:
 frequency output generated by the xtb code
 *********************************************
                         Standard orientation:
 --------------------------------------------------------------------
  Center     Atomic     Atomic              Coordinates (Angstroms)
  Number     Number      Type              X           Y           Z
 --------------------------------------------------------------------
    1          6             0        3.182549    0.223111   -0.000205
    2          6             0        1.868553   -0.548772   -0.001053
    3          6             0        0.659583    0.383833    0.002234
    4          6             0       -0.659766   -0.384265    0.001338
    5          6             0       -1.868479    0.548695   -0.002340
    6          6             0       -3.182864   -0.222510    0.000276
    7          1             0        3.255035    0.852161    0.884391
    8          1             0        3.250932    0.860877   -0.878878
    9          1             0        4.028350   -0.460576   -0.005554
   10          1             0        1.825869   -1.190112   -0.884280
   11          1             0        1.827388   -1.194884    0.878755
   12          1             0        0.701386    1.030177   -0.877732
   13          1             0        0.702695    1.025986    0.885179
   14          1             0       -0.703799   -1.027211    0.883665
   15          1             0       -0.700867   -1.029795   -0.879253
   16          1             0       -1.826502    1.195777    0.876710
   17          1             0       -1.826042    1.189020   -0.886308
   18          1             0       -3.255857   -0.849265    0.886455
   19          1             0       -4.028272    0.461641   -0.006944
   20          1             0       -3.251491   -0.862473   -0.876777
 --------------------------------------------------------------------
     1 basis functions        1 primitive gaussians
     1 alpha electrons        1 beta electrons
 
 Harmonic frequencies (cm**-1), IR intensities (KM/Mole),
 Raman scattering activities (A**4/amu), Raman depolarization ratios,
 reduced masses (AMU), force constants (mDyne/A) and normal coordinates:
                      1                      2                      3
                        a                      a                      a 
 Frequencies --    92.5891                67.8757               135.5802
 Red. masses --    99.0000                99.0000                99.0000
 Frc consts  --    99.0000                99.0000                99.0000
 IR Inten    --    99.0000                99.0000                99.0000
 Raman Activ --     0.0000                 0.0000                 0.0000
 Depolar     --     0.0000                 0.0000                 0.0000
 Atom AN      X      Y      Z        X      Y      Z        X      Y      Z
   1   6     0.00  -0.00   0.08    -0.00   0.00  -0.44    -0.07   0.23   0.17
   2   6     0.00  -0.00   0.27    -0.00  -0.00   0.21     0.10  -0.05  -0.21
   3   6     0.00   0.00  -0.36     0.00  -0.00   0.26    -0.02  -0.21  -0.34
   4   6     0.00   0.00  -0.36    -0.00   0.00   0.26    -0.03  -0.21   0.34
   5   6    -0.00   0.00   0.27     0.00   0.00   0.21     0.10  -0.05   0.21
   6   6     0.00  -0.00   0.08     0.00  -0.00  -0.44    -0.07   0.23  -0.17
   7   1    -0.06   0.16  -0.09     0.07   0.10  -0.20    -0.10   0.01   0.09
   8   1     0.06  -0.16  -0.09    -0.07  -0.10  -0.20    -0.02   0.13   0.10
   9   1     0.00  -0.00   0.20    -0.00  -0.00  -0.12     0.03   0.12   0.04
  10   1     0.04  -0.13   0.17    -0.08  -0.08   0.12     0.11   0.01  -0.08
  11   1    -0.04   0.13   0.17     0.08   0.08   0.12     0.01  -0.04  -0.08
  12   1     0.06  -0.09  -0.17    -0.01  -0.00   0.07    -0.08  -0.17  -0.18
  13   1    -0.06   0.09  -0.17     0.01   0.00   0.07     0.04   0.05  -0.18
  14   1     0.06  -0.09  -0.16    -0.01  -0.00   0.07     0.04   0.05   0.18
  15   1    -0.06   0.09  -0.17     0.01   0.00   0.07    -0.08  -0.17   0.18
  16   1     0.04  -0.13   0.17    -0.08  -0.08   0.12     0.01  -0.04   0.08
  17   1    -0.04   0.13   0.17     0.08   0.08   0.12     0.11   0.01   0.08
  18   1     0.06  -0.16  -0.09    -0.07  -0.10  -0.20    -0.10   0.01  -0.09
  19   1    -0.00   0.00   0.20     0.00   0.00  -0.12     0.03   0.12  -0.04
  20   1    -0.06   0.16  -0.09     0.07   0.10  -0.20    -0.02   0.13  -0.10
                      4                      5                      6
                        a                      a                      a 
 Frequencies --   227.3655               134.8210               237.0185
 Red. masses --    99.0000                99.0000                99.0000
 Frc consts  --    99.0000                99.0000                99.0000
 IR Inten    --    99.0000                99.0000                99.0000
 Raman Activ --     0.0000                 0.0000                 0.0000
 Depolar     --     0.0000                 0.0000                 0.0000
 Atom AN      X      Y      Z        X      Y      Z        X      Y      Z
   1   6    -0.00   0.00   0.04    -0.09   0.33  -0.12    -0.00  -0.00   0.03
   2   6     0.00  -0.00  -0.19     0.14  -0.07   0.15    -0.00   0.00  -0.19
   3   6     0.00  -0.00   0.03    -0.04  -0.30   0.24    -0.00   0.00   0.16
   4   6     0.00  -0.00  -0.03    -0.04  -0.30  -0.24     0.00   0.00   0.16
   5   6     0.00   0.00   0.19     0.14  -0.07  -0.15     0.00  -0.00  -0.19
   6   6    -0.00  -0.00  -0.04    -0.09   0.33   0.12     0.00   0.00   0.03
   7   1    -0.20   0.26  -0.15    -0.06   0.15  -0.07    -0.19   0.24  -0.15
   8   1     0.20  -0.26  -0.16    -0.12   0.06  -0.07     0.19  -0.24  -0.15
   9   1     0.00  -0.00   0.41     0.04   0.17  -0.03     0.00  -0.00   0.38
  10   1     0.01   0.05  -0.09     0.05  -0.04   0.06    -0.00   0.07  -0.11
  11   1    -0.01  -0.05  -0.09     0.12  -0.00   0.06     0.00  -0.07  -0.11
  12   1    -0.01   0.05   0.05     0.01  -0.01   0.13    -0.03   0.06   0.09
  13   1     0.01  -0.05   0.05    -0.07  -0.16   0.13     0.03  -0.06   0.09
  14   1     0.01  -0.05  -0.05    -0.07  -0.16  -0.13    -0.03   0.06   0.09
  15   1    -0.01   0.05  -0.05     0.01  -0.01  -0.13     0.03  -0.06   0.09
  16   1    -0.01  -0.05   0.09     0.12  -0.00  -0.06    -0.00   0.07  -0.11
  17   1     0.01   0.05   0.09     0.05  -0.04  -0.06     0.00  -0.07  -0.11
  18   1    -0.21   0.26   0.16    -0.06   0.14   0.07     0.19  -0.24  -0.15
  19   1     0.00  -0.00  -0.41     0.04   0.17   0.03    -0.00   0.00   0.38
  20   1     0.20  -0.26   0.16    -0.12   0.06   0.07    -0.19   0.24  -0.15
                      7                      8                      9
                        a                      a                      a 
 Frequencies --   301.3721               370.7790               465.0023
 Red. masses --    99.0000                99.0000                99.0000
 Frc consts  --    99.0000                99.0000                99.0000
 IR Inten    --    99.0000                99.0000                99.0000
 Raman Activ --     0.0000                 0.0000                 0.0000
 Depolar     --     0.0000                 0.0000                 0.0000
 Atom AN      X      Y      Z        X      Y      Z        X      Y      Z
   1   6    -0.40   0.15   0.00     0.30   0.10   0.00     0.30  -0.01  -0.00
   2   6    -0.09  -0.33  -0.00     0.39  -0.18  -0.00     0.05   0.27   0.00
   3   6     0.06  -0.19  -0.00     0.20  -0.25   0.00    -0.36  -0.22  -0.00
   4   6    -0.06   0.19   0.00    -0.20   0.25   0.00    -0.36  -0.22   0.00
   5   6     0.09   0.33  -0.00    -0.39   0.18  -0.00     0.05   0.27  -0.00
   6   6     0.40  -0.15   0.00    -0.30  -0.10   0.00     0.30  -0.01   0.00
   7   1    -0.21   0.06  -0.00     0.05   0.03  -0.00     0.18  -0.02   0.00
   8   1    -0.21   0.06   0.00     0.05   0.03   0.00     0.18  -0.02  -0.00
   9   1    -0.01   0.17   0.00     0.12   0.07   0.00    -0.01  -0.13  -0.00
  10   1    -0.00  -0.09  -0.00     0.15  -0.05  -0.00     0.04   0.07   0.00
  11   1    -0.00  -0.09   0.00     0.16  -0.05   0.00     0.04   0.07  -0.00
  12   1     0.06  -0.06   0.00     0.10  -0.07   0.00    -0.17  -0.05   0.00
  13   1     0.06  -0.06  -0.00     0.10  -0.07  -0.00    -0.17  -0.05  -0.00
  14   1    -0.06   0.06  -0.00    -0.10   0.07  -0.00    -0.17  -0.05   0.00
  15   1    -0.06   0.05   0.00    -0.10   0.07   0.00    -0.17  -0.05  -0.00
  16   1     0.00   0.09   0.00    -0.15   0.05   0.00     0.04   0.07   0.00
  17   1     0.00   0.09  -0.00    -0.15   0.05  -0.00     0.04   0.07  -0.00
  18   1     0.21  -0.06  -0.00    -0.05  -0.03  -0.00     0.18  -0.02  -0.00
  19   1     0.01  -0.17   0.00    -0.12  -0.07   0.00    -0.01  -0.13   0.00
  20   1     0.21  -0.06   0.00    -0.05  -0.03   0.00     0.18  -0.02   0.00
                     10                     11                     12
                        a                      a                      a 
 Frequencies --   769.0665               842.4614               785.9571
 Red. masses --    99.0000                99.0000                99.0000
 Frc consts  --    99.0000                99.0000                99.0000
 IR Inten    --    99.0000                99.0000                99.0000
 Raman Activ --     0.0000                 0.0000                 0.0000
 Depolar     --     0.0000                 0.0000                 0.0000
 Atom AN      X      Y      Z        X      Y      Z        X      Y      Z
   1   6    -0.00   0.00  -0.01    -0.00  -0.00   0.09    -0.00  -0.00   0.03
   2   6    -0.00   0.00  -0.09    -0.00   0.00   0.18     0.00  -0.00   0.18
   3   6     0.00   0.00  -0.14    -0.00  -0.00  -0.16     0.00   0.00   0.10
   4   6    -0.00  -0.00  -0.14     0.00   0.00  -0.16     0.00   0.00  -0.10
   5   6     0.00  -0.00  -0.09     0.00   0.00   0.18     0.00  -0.00  -0.18
   6   6    -0.00  -0.00  -0.01     0.00   0.00   0.09    -0.00  -0.00  -0.03
   7   1    -0.07  -0.06   0.05     0.21   0.14  -0.10     0.15   0.11  -0.09
   8   1     0.07   0.06   0.05    -0.21  -0.14  -0.10    -0.15  -0.11  -0.09
   9   1     0.00   0.00   0.03    -0.00  -0.00  -0.11    -0.00  -0.00  -0.07
  10   1     0.03  -0.23   0.14     0.13   0.20  -0.11     0.01   0.32  -0.19
  11   1    -0.03   0.23   0.14    -0.13  -0.20  -0.11    -0.01  -0.32  -0.19
  12   1     0.04   0.33   0.21     0.14   0.18   0.10     0.09  -0.17  -0.10
  13   1    -0.04  -0.33   0.21    -0.14  -0.18   0.10    -0.09   0.17  -0.10
  14   1     0.04   0.33   0.21     0.14   0.18   0.10    -0.09   0.17   0.10
  15   1    -0.04  -0.33   0.21    -0.14  -0.18   0.10     0.09  -0.17   0.10
  16   1     0.03  -0.23   0.14     0.13   0.20  -0.11    -0.01  -0.32   0.19
  17   1    -0.03   0.23   0.14    -0.13  -0.20  -0.11     0.01   0.32   0.19
  18   1     0.07   0.06   0.05    -0.21  -0.14  -0.10     0.15   0.11   0.09
  19   1    -0.00   0.00   0.03     0.00   0.00  -0.11    -0.00  -0.00   0.07
  20   1    -0.07  -0.06   0.05     0.21   0.14  -0.10    -0.15  -0.11   0.09
                     13                     14                     15
                        a                      a                      a 
 Frequencies --  1504.7999              1504.8460              1508.0695
 Red. masses --    99.0000                99.0000                99.0000
 Frc consts  --    99.0000                99.0000                99.0000
 IR Inten    --    99.0000                99.0000                99.0000
 Raman Activ --     0.0000                 0.0000                 0.0000
 Depolar     --     0.0000                 0.0000                 0.0000
 Atom AN      X      Y      Z        X      Y      Z        X      Y      Z
   1   6    -0.00   0.00  -0.13    -0.00   0.00  -0.17    -0.07   0.13   0.00
   2   6    -0.00   0.00  -0.03    -0.00  -0.00  -0.04    -0.03   0.06   0.00
   3   6    -0.00  -0.00   0.01     0.00  -0.00  -0.00     0.02   0.04   0.00
   4   6     0.00   0.00   0.00     0.00  -0.00   0.00    -0.02  -0.04   0.00
   5   6     0.00  -0.00  -0.04    -0.00   0.00   0.03     0.03  -0.06   0.00
   6   6     0.00  -0.00  -0.17    -0.00   0.00   0.13     0.07  -0.13   0.00
   7   1     0.27  -0.11   0.05     0.33  -0.14   0.06     0.07  -0.35   0.25
   8   1    -0.27   0.11   0.05    -0.33   0.14   0.06     0.07  -0.35  -0.25
   9   1     0.00  -0.00   0.45     0.00  -0.00   0.56     0.13   0.18   0.00
  10   1    -0.01  -0.02   0.00    -0.01  -0.01  -0.00     0.02  -0.05   0.04
  11   1     0.01   0.01  -0.00     0.01   0.01   0.00     0.02  -0.05  -0.04
  12   1     0.01   0.00   0.00     0.02   0.00   0.00    -0.02  -0.09  -0.07
  13   1    -0.01   0.01  -0.00    -0.02   0.00  -0.00    -0.02  -0.09   0.07
  14   1     0.01  -0.01  -0.01    -0.01   0.00   0.00     0.02   0.10   0.07
  15   1    -0.01  -0.00   0.00     0.02   0.00  -0.00     0.02   0.10  -0.07
  16   1    -0.01  -0.01  -0.00     0.01   0.01   0.00    -0.02   0.05  -0.04
  17   1     0.01   0.02   0.00    -0.01  -0.01  -0.00    -0.02   0.05   0.04
  18   1    -0.33   0.14   0.06     0.27  -0.11  -0.05    -0.07   0.36   0.25
  19   1    -0.00   0.00   0.56     0.00  -0.00  -0.45    -0.13  -0.18   0.00
  20   1     0.33  -0.14   0.06    -0.27   0.11  -0.05    -0.07   0.35  -0.26
                     16                     17                     18
                        a                      a                      a 
 Frequencies --   926.1055              1507.8056              1200.1716
 Red. masses --    99.0000                99.0000                99.0000
 Frc consts  --    99.0000                99.0000                99.0000
 IR Inten    --    99.0000                99.0000                99.0000
 Raman Activ --     0.0000                 0.0000                 0.0000
 Depolar     --     0.0000                 0.0000                 0.0000
 Atom AN      X      Y      Z        X      Y      Z        X      Y      Z
   1   6     0.00  -0.00   0.14    -0.07   0.13   0.00    -0.00   0.00  -0.20
   2   6     0.00  -0.00   0.01    -0.03   0.09   0.00    -0.00   0.00   0.32
   3   6    -0.00   0.00  -0.22     0.01   0.03   0.00    -0.00  -0.00  -0.33
   4   6    -0.00   0.00   0.22     0.01   0.03   0.00    -0.00   0.00   0.33
   5   6     0.00  -0.00  -0.01    -0.03   0.08  -0.00    -0.00  -0.00  -0.32
   6   6     0.00  -0.00  -0.14    -0.07   0.13  -0.00     0.00   0.00   0.20
   7   1     0.23   0.15  -0.09     0.07  -0.35   0.25    -0.16  -0.12   0.05
   8   1    -0.23  -0.15  -0.09     0.07  -0.35  -0.25     0.16   0.12   0.05
   9   1     0.00   0.00  -0.12     0.13   0.18   0.00     0.00   0.00   0.09
  10   1     0.25  -0.01  -0.01     0.02  -0.10   0.08     0.01   0.19  -0.06
  11   1    -0.25   0.01  -0.01     0.02  -0.10  -0.08    -0.01  -0.18  -0.06
  12   1    -0.11   0.20   0.09    -0.01  -0.07  -0.05     0.04   0.19   0.06
  13   1     0.11  -0.20   0.09    -0.01  -0.07   0.05    -0.04  -0.19   0.06
  14   1     0.11  -0.20  -0.09    -0.01  -0.07  -0.05    -0.04  -0.19  -0.06
  15   1    -0.11   0.20  -0.09    -0.01  -0.07   0.05     0.04   0.19  -0.06
  16   1    -0.25   0.01   0.01     0.02  -0.10   0.08    -0.01  -0.18   0.06
  17   1     0.25  -0.01   0.01     0.02  -0.10  -0.08     0.01   0.19   0.06
  18   1     0.23   0.15   0.09     0.07  -0.34  -0.24    -0.16  -0.12  -0.05
  19   1     0.00   0.00   0.12     0.13   0.18  -0.00     0.00   0.00  -0.09
  20   1    -0.23  -0.15   0.09     0.07  -0.34   0.25     0.16   0.12  -0.05
                     19                     20                     21
                        a                      a                      a 
 Frequencies --  1003.9855              1495.8235              1500.1288
 Red. masses --    99.0000                99.0000                99.0000
 Frc consts  --    99.0000                99.0000                99.0000
 IR Inten    --    99.0000                99.0000                99.0000
 Raman Activ --     0.0000                 0.0000                 0.0000
 Depolar     --     0.0000                 0.0000                 0.0000
 Atom AN      X      Y      Z        X      Y      Z        X      Y      Z
   1   6    -0.00   0.00   0.13    -0.00   0.04   0.00     0.01  -0.04  -0.00
   2   6    -0.00   0.00  -0.14    -0.03  -0.13  -0.00     0.04   0.11   0.00
   3   6     0.00  -0.00   0.05    -0.04  -0.15  -0.00     0.00   0.17   0.00
   4   6    -0.00   0.00   0.05     0.04   0.14  -0.00     0.00   0.17  -0.00
   5   6     0.00  -0.00  -0.14     0.03   0.13  -0.00     0.04   0.11  -0.00
   6   6     0.00  -0.00   0.13     0.00  -0.04   0.00     0.01  -0.04   0.00
   7   1     0.17   0.11  -0.06     0.01  -0.11   0.08    -0.01   0.12  -0.08
   8   1    -0.16  -0.11  -0.06     0.01  -0.11  -0.08    -0.01   0.12   0.08
   9   1    -0.00  -0.00  -0.08     0.03   0.04  -0.00    -0.04  -0.05   0.00
  10   1     0.24  -0.12   0.04     0.03   0.24  -0.18    -0.03  -0.22   0.16
  11   1    -0.23   0.12   0.04     0.03   0.23   0.18    -0.03  -0.21  -0.16
  12   1    -0.33  -0.02  -0.02     0.04   0.28   0.21    -0.02  -0.29  -0.22
  13   1     0.34   0.02  -0.02     0.04   0.28  -0.21    -0.02  -0.29   0.22
  14   1    -0.34  -0.02  -0.02    -0.04  -0.27  -0.20    -0.02  -0.29  -0.22
  15   1     0.33   0.02  -0.02    -0.04  -0.27   0.20    -0.02  -0.29   0.22
  16   1     0.23  -0.12   0.04    -0.03  -0.24   0.19    -0.03  -0.22   0.16
  17   1    -0.24   0.12   0.04    -0.03  -0.25  -0.18    -0.03  -0.22  -0.16
  18   1    -0.17  -0.11  -0.06    -0.01   0.11   0.08    -0.01   0.12   0.08
  19   1     0.00   0.00  -0.08    -0.03  -0.04  -0.00    -0.04  -0.05  -0.00
  20   1     0.16   0.11  -0.06    -0.01   0.11  -0.08    -0.01   0.12  -0.09
                     22                     23                     24
                        a                      a                      a 
 Frequencies --   942.0173              1496.4352               940.0482
 Red. masses --    99.0000                99.0000                99.0000
 Frc consts  --    99.0000                99.0000                99.0000
 IR Inten    --    99.0000                99.0000                99.0000
 Raman Activ --     0.0000                 0.0000                 0.0000
 Depolar     --     0.0000                 0.0000                 0.0000
 Atom AN      X      Y      Z        X      Y      Z        X      Y      Z
   1   6     0.30  -0.05  -0.00    -0.01  -0.02   0.00     0.20  -0.12  -0.00
   2   6     0.03  -0.24  -0.00    -0.01   0.15   0.00     0.06  -0.16  -0.00
   3   6    -0.26   0.20   0.00     0.02  -0.12  -0.00    -0.04   0.33   0.00
   4   6    -0.26   0.19  -0.00     0.01  -0.13   0.00     0.04  -0.33   0.00
   5   6     0.03  -0.24   0.00    -0.01   0.15  -0.00    -0.06   0.17  -0.00
   6   6     0.30  -0.05   0.00    -0.01  -0.02  -0.00    -0.21   0.12  -0.00
   7   1    -0.13   0.03  -0.01     0.01   0.06  -0.04    -0.19   0.02  -0.02
   8   1    -0.13   0.04   0.02     0.01   0.06   0.04    -0.19   0.02   0.02
   9   1     0.31   0.27   0.00    -0.00  -0.00  -0.00     0.31   0.29   0.00
  10   1    -0.07  -0.06   0.00    -0.01  -0.30   0.22    -0.10  -0.03   0.00
  11   1    -0.07  -0.06  -0.00    -0.01  -0.30  -0.22    -0.11  -0.03   0.00
  12   1    -0.08   0.05   0.00    -0.01   0.23   0.17    -0.07   0.09  -0.00
  13   1    -0.09   0.06  -0.00    -0.01   0.23  -0.17    -0.07   0.09   0.00
  14   1    -0.09   0.06   0.00    -0.00   0.24   0.18     0.07  -0.09   0.00
  15   1    -0.09   0.05  -0.00    -0.00   0.24  -0.18     0.07  -0.09  -0.00
  16   1    -0.07  -0.06   0.00    -0.01  -0.29   0.22     0.11   0.03   0.00
  17   1    -0.07  -0.06  -0.00    -0.01  -0.29  -0.22     0.10   0.03   0.00
  18   1    -0.13   0.03   0.01     0.01   0.05   0.04     0.19  -0.02  -0.02
  19   1     0.31   0.27  -0.00    -0.00  -0.00   0.00    -0.31  -0.29   0.00
  20   1    -0.13   0.03  -0.02     0.02   0.05  -0.04     0.19  -0.02   0.02
                     25                     26                     27
                        a                      a                      a 
 Frequencies --  1229.8762              1502.5956              1079.9027
 Red. masses --    99.0000                99.0000                99.0000
 Frc consts  --    99.0000                99.0000                99.0000
 IR Inten    --    99.0000                99.0000                99.0000
 Raman Activ --     0.0000                 0.0000                 0.0000
 Depolar     --     0.0000                 0.0000                 0.0000
 Atom AN      X      Y      Z        X      Y      Z        X      Y      Z
   1   6     0.00  -0.00   0.25     0.02  -0.00  -0.00    -0.13  -0.31  -0.00
   2   6    -0.00   0.00  -0.30     0.00  -0.15  -0.00     0.21   0.34   0.00
   3   6     0.00  -0.00   0.10     0.00   0.12   0.00     0.12  -0.10  -0.00
   4   6    -0.00   0.00   0.10    -0.00  -0.12   0.00     0.12  -0.10   0.00
   5   6     0.00  -0.00  -0.30    -0.00   0.15  -0.00     0.21   0.34  -0.00
   6   6    -0.00   0.00   0.25    -0.02   0.00  -0.00    -0.13  -0.31   0.00
   7   1     0.18   0.14  -0.06    -0.02   0.01  -0.00    -0.24  -0.04  -0.01
   8   1    -0.18  -0.14  -0.06    -0.03   0.01   0.01    -0.24  -0.04   0.01
   9   1    -0.00   0.00  -0.10    -0.02  -0.03   0.01     0.13   0.13  -0.00
  10   1    -0.19  -0.15   0.05     0.00   0.29  -0.22    -0.04   0.10   0.00
  11   1     0.19   0.15   0.05     0.01   0.29   0.22    -0.04   0.10   0.00
  12   1     0.21  -0.07  -0.02    -0.01  -0.25  -0.19    -0.12  -0.01   0.00
  13   1    -0.21   0.07  -0.02    -0.01  -0.25   0.18    -0.12  -0.01  -0.00
  14   1     0.21  -0.07  -0.02     0.02   0.25   0.19    -0.12  -0.01   0.00
  15   1    -0.21   0.07  -0.02     0.01   0.25  -0.19    -0.12  -0.01  -0.00
  16   1    -0.19  -0.15   0.05    -0.01  -0.29   0.22    -0.04   0.10  -0.00
  17   1     0.19   0.15   0.05    -0.00  -0.29  -0.21    -0.04   0.10  -0.00
  18   1    -0.18  -0.14  -0.06     0.02  -0.01  -0.00    -0.24  -0.04   0.01
  19   1     0.00  -0.00  -0.10     0.02   0.03   0.01     0.13   0.13  -0.00
  20   1     0.18   0.14  -0.06     0.03  -0.01   0.01    -0.24  -0.04  -0.01
                     28                     29                     30
                        a                      a                      a 
 Frequencies --  1074.4819              1268.6843              1108.5390
 Red. masses --    99.0000                99.0000                99.0000
 Frc consts  --    99.0000                99.0000                99.0000
 IR Inten    --    99.0000                99.0000                99.0000
 Raman Activ --     0.0000                 0.0000                 0.0000
 Depolar     --     0.0000                 0.0000                 0.0000
 Atom AN      X      Y      Z        X      Y      Z        X      Y      Z
   1   6     0.29   0.20   0.00     0.00   0.00   0.17    -0.12  -0.15   0.00
   2   6    -0.33  -0.19  -0.00     0.00  -0.00  -0.01     0.26   0.01  -0.00
   3   6    -0.31  -0.23  -0.00     0.00   0.00  -0.20    -0.42  -0.14   0.00
   4   6     0.31   0.23   0.00     0.00   0.00   0.20     0.42   0.14   0.00
   5   6     0.33   0.19  -0.00     0.00  -0.00   0.01    -0.26  -0.01  -0.00
   6   6    -0.29  -0.20   0.00    -0.00   0.00  -0.17     0.12   0.15  -0.00
   7   1     0.11   0.05  -0.00     0.11   0.09  -0.03    -0.08  -0.03  -0.00
   8   1     0.11   0.05   0.00    -0.11  -0.09  -0.03    -0.08  -0.04  -0.00
   9   1     0.07   0.04   0.00    -0.00  -0.00  -0.05    -0.00  -0.00  -0.00
  10   1    -0.10  -0.06   0.00    -0.42   0.02   0.00     0.18  -0.01   0.00
  11   1    -0.10  -0.05  -0.00     0.42  -0.02  -0.00     0.18  -0.01  -0.00
  12   1    -0.09  -0.07  -0.00    -0.04   0.11   0.03    -0.25  -0.03   0.00
  13   1    -0.09  -0.07   0.00     0.04  -0.11   0.03    -0.24  -0.03   0.00
  14   1     0.09   0.07   0.00     0.04  -0.11  -0.03     0.24   0.03   0.00
  15   1     0.09   0.07  -0.00    -0.04   0.11  -0.03     0.25   0.03   0.00
  16   1     0.10   0.06  -0.00     0.42  -0.02   0.00    -0.18   0.01  -0.00
  17   1     0.10   0.06   0.00    -0.42   0.02  -0.00    -0.18   0.01   0.00
  18   1    -0.11  -0.05  -0.00     0.11   0.09   0.03     0.08   0.03  -0.00
  19   1    -0.07  -0.04   0.00    -0.00  -0.00   0.05     0.00   0.00  -0.00
  20   1    -0.11  -0.05   0.00    -0.11  -0.09   0.03     0.08   0.04  -0.00
                     31                     32                     33
                        a                      a                      a 
 Frequencies --  1118.8446              1150.1337              1292.9571
 Red. masses --    99.0000                99.0000                99.0000
 Frc consts  --    99.0000                99.0000                99.0000
 IR Inten    --    99.0000                99.0000                99.0000
 Raman Activ --     0.0000                 0.0000                 0.0000
 Depolar     --     0.0000                 0.0000                 0.0000
 Atom AN      X      Y      Z        X      Y      Z        X      Y      Z
   1   6     0.22   0.08  -0.00    -0.06   0.19   0.00     0.00  -0.00   0.09
   2   6    -0.37   0.11   0.00     0.07  -0.37  -0.00    -0.00   0.00   0.10
   3   6     0.25  -0.23   0.00    -0.07   0.38   0.00    -0.00   0.00  -0.18
   4   6     0.25  -0.23  -0.00     0.06  -0.38   0.00     0.00  -0.00  -0.18
   5   6    -0.37   0.11  -0.00    -0.07   0.37  -0.00     0.00  -0.00   0.10
   6   6     0.22   0.08  -0.00     0.06  -0.19   0.00    -0.00   0.00   0.09
   7   1     0.00   0.05  -0.01     0.17  -0.00   0.02     0.06   0.04  -0.01
   8   1     0.00   0.05   0.01     0.17  -0.00  -0.02    -0.06  -0.04  -0.01
   9   1     0.11   0.10   0.00    -0.17  -0.15  -0.00     0.00   0.00  -0.01
  10   1    -0.26   0.04   0.00     0.11  -0.10  -0.00    -0.36   0.07  -0.01
  11   1    -0.26   0.04  -0.00     0.11  -0.10   0.00     0.37  -0.08  -0.01
  12   1     0.04  -0.07  -0.01    -0.04   0.09  -0.00    -0.26   0.11   0.02
  13   1     0.04  -0.07   0.01    -0.04   0.09   0.00     0.26  -0.11   0.02
  14   1     0.04  -0.07  -0.00     0.04  -0.09   0.00    -0.26   0.11   0.02
  15   1     0.04  -0.07   0.01     0.04  -0.09  -0.00     0.26  -0.11   0.02
  16   1    -0.26   0.04   0.00    -0.11   0.10   0.00    -0.37   0.07  -0.01
  17   1    -0.26   0.04  -0.00    -0.11   0.10  -0.00     0.36  -0.07  -0.01
  18   1     0.00   0.05   0.01    -0.17   0.00   0.02    -0.06  -0.04  -0.01
  19   1     0.12   0.10  -0.00     0.17   0.15  -0.00    -0.00  -0.00  -0.01
  20   1     0.00   0.05  -0.01    -0.17   0.00  -0.02     0.06   0.04  -0.01
                     34                     35                     36
                        a                      a                      a 
 Frequencies --  1283.7195              1260.4560              1319.5647
 Red. masses --    99.0000                99.0000                99.0000
 Frc consts  --    99.0000                99.0000                99.0000
 IR Inten    --    99.0000                99.0000                99.0000
 Raman Activ --     0.0000                 0.0000                 0.0000
 Depolar     --     0.0000                 0.0000                 0.0000
 Atom AN      X      Y      Z        X      Y      Z        X      Y      Z
   1   6    -0.00   0.00  -0.05     0.04  -0.13   0.00    -0.04   0.12   0.00
   2   6     0.00  -0.00   0.14    -0.15   0.17   0.00     0.28  -0.06   0.00
   3   6    -0.00   0.00   0.15    -0.21  -0.06  -0.00     0.15  -0.10  -0.00
   4   6     0.00   0.00  -0.15    -0.21  -0.06   0.00    -0.15   0.10  -0.00
   5   6     0.00  -0.00  -0.14    -0.15   0.17   0.00    -0.28   0.06   0.00
   6   6    -0.00   0.00   0.05     0.04  -0.13  -0.00     0.04  -0.12   0.00
   7   1    -0.03  -0.03   0.02    -0.07   0.01  -0.02     0.01  -0.03   0.03
   8   1     0.03   0.03   0.02    -0.07   0.01   0.02     0.01  -0.03  -0.04
   9   1    -0.00  -0.00   0.04     0.11   0.10  -0.00    -0.12  -0.11  -0.00
  10   1    -0.03   0.07  -0.01     0.18   0.02   0.01    -0.35   0.01  -0.00
  11   1     0.03  -0.07  -0.01     0.19   0.02  -0.01    -0.34   0.01   0.00
  12   1    -0.47  -0.04  -0.02     0.37  -0.04   0.00    -0.23   0.02   0.01
  13   1     0.46   0.04  -0.02     0.37  -0.04  -0.00    -0.22   0.01  -0.01
  14   1     0.47   0.04   0.02     0.37  -0.04   0.00     0.22  -0.01  -0.01
  15   1    -0.47  -0.04   0.02     0.37  -0.04  -0.00     0.23  -0.02   0.01
  16   1     0.03  -0.07   0.01     0.19   0.02   0.01     0.34  -0.01   0.00
  17   1    -0.03   0.07   0.01     0.18   0.02  -0.01     0.35  -0.01  -0.00
  18   1    -0.03  -0.03  -0.02    -0.07   0.01   0.02    -0.01   0.03   0.03
  19   1     0.00  -0.00  -0.04     0.11   0.10   0.00     0.12   0.11  -0.00
  20   1     0.03   0.03  -0.02    -0.07   0.01  -0.02    -0.01   0.03  -0.04
                     37                     38                     39
                        a                      a                      a 
 Frequencies --  1364.0879              1379.4192              1415.9743
 Red. masses --    99.0000                99.0000                99.0000
 Frc consts  --    99.0000                99.0000                99.0000
 IR Inten    --    99.0000                99.0000                99.0000
 Raman Activ --     0.0000                 0.0000                 0.0000
 Depolar     --     0.0000                 0.0000                 0.0000
 Atom AN      X      Y      Z        X      Y      Z        X      Y      Z
   1   6     0.03  -0.08  -0.00    -0.05   0.02   0.00     0.27   0.14   0.00
   2   6    -0.34  -0.00   0.00     0.24   0.01  -0.00    -0.05   0.01  -0.00
   3   6     0.20   0.04  -0.00    -0.39   0.04   0.00    -0.02   0.02   0.00
   4   6     0.20   0.04   0.00     0.39  -0.04   0.00     0.02  -0.02   0.00
   5   6    -0.34  -0.00  -0.00    -0.24  -0.01  -0.00     0.05  -0.01  -0.00
   6   6     0.03  -0.08   0.00     0.05  -0.02   0.00    -0.27  -0.14   0.00
   7   1     0.02   0.04  -0.04     0.01  -0.02   0.02    -0.33  -0.10   0.11
   8   1     0.02   0.04   0.04     0.01  -0.02  -0.02    -0.33  -0.09  -0.10
   9   1     0.09   0.09   0.00    -0.03  -0.01  -0.00    -0.22  -0.29  -0.00
  10   1     0.33  -0.01  -0.01    -0.19   0.00   0.01     0.05  -0.03   0.02
  11   1     0.33  -0.01   0.01    -0.19   0.00  -0.01     0.05  -0.03  -0.02
  12   1    -0.21   0.00  -0.02     0.33  -0.02  -0.01     0.03   0.00  -0.00
  13   1    -0.21   0.00   0.02     0.33  -0.02   0.00     0.03   0.00   0.00
  14   1    -0.21   0.00  -0.02    -0.32   0.02   0.00    -0.03  -0.00   0.00
  15   1    -0.21   0.00   0.02    -0.33   0.03  -0.01    -0.03  -0.00  -0.00
  16   1     0.33  -0.01  -0.01     0.19  -0.00  -0.01    -0.05   0.03  -0.02
  17   1     0.33  -0.01   0.01     0.19  -0.00   0.01    -0.05   0.03   0.02
  18   1     0.02   0.04   0.04    -0.01   0.02   0.02     0.33   0.10   0.11
  19   1     0.09   0.09  -0.00     0.02   0.01  -0.00     0.22   0.29  -0.00
  20   1     0.02   0.04  -0.04    -0.01   0.02  -0.02     0.34   0.09  -0.11
                     40                     41                     42
                        a                      a                      a 
 Frequencies --  1416.1179              2955.3222              2960.3864
 Red. masses --    99.0000                99.0000                99.0000
 Frc consts  --    99.0000                99.0000                99.0000
 IR Inten    --    99.0000                99.0000                99.0000
 Raman Activ --     0.0000                 0.0000                 0.0000
 Depolar     --     0.0000                 0.0000                 0.0000
 Atom AN      X      Y      Z        X      Y      Z        X      Y      Z
   1   6    -0.28  -0.14  -0.00    -0.00   0.00   0.00    -0.00   0.00   0.01
   2   6     0.07  -0.01  -0.00    -0.00   0.00  -0.08    -0.00   0.00  -0.16
   3   6    -0.02  -0.01  -0.00     0.00  -0.00   0.19     0.00  -0.00   0.13
   4   6    -0.02  -0.01   0.00     0.00  -0.00  -0.19    -0.00   0.00   0.13
   5   6     0.07  -0.01  -0.00    -0.00   0.00   0.08     0.00  -0.00  -0.16
   6   6    -0.27  -0.14   0.00    -0.00   0.00  -0.00     0.00  -0.00   0.01
   7   1     0.33   0.09  -0.10    -0.00  -0.01  -0.01    -0.00  -0.02  -0.03
   8   1     0.34   0.09   0.10     0.00   0.01  -0.01     0.00   0.02  -0.03
   9   1     0.21   0.29   0.00     0.00  -0.00   0.00     0.00  -0.00   0.00
  10   1    -0.06   0.03  -0.02     0.01   0.11   0.15     0.01   0.22   0.29
  11   1    -0.06   0.03   0.02    -0.01  -0.12   0.15    -0.01  -0.22   0.29
  12   1     0.02  -0.01  -0.00     0.02   0.27  -0.35     0.01   0.19  -0.24
  13   1     0.02  -0.01   0.00    -0.02  -0.27  -0.35    -0.01  -0.18  -0.24
  14   1     0.02  -0.01  -0.00    -0.02  -0.27   0.35     0.01   0.18  -0.24
  15   1     0.02  -0.01   0.00     0.02   0.27   0.35    -0.01  -0.19  -0.24
  16   1    -0.06   0.03  -0.02    -0.01  -0.11  -0.15     0.01   0.22   0.29
  17   1    -0.06   0.03   0.02     0.01   0.11  -0.15    -0.01  -0.22   0.29
  18   1     0.33   0.09   0.10    -0.00  -0.01   0.01     0.00   0.02  -0.03
  19   1     0.21   0.28  -0.00     0.00  -0.00  -0.00    -0.00   0.00   0.00
  20   1     0.33   0.09  -0.10     0.00   0.01   0.01    -0.00  -0.02  -0.03
                     43                     44                     45
                        a                      a                      a 
 Frequencies --  2968.7829              3030.7293              3030.2336
 Red. masses --    99.0000                99.0000                99.0000
 Frc consts  --    99.0000                99.0000                99.0000
 IR Inten    --    99.0000                99.0000                99.0000
 Raman Activ --     0.0000                 0.0000                 0.0000
 Depolar     --     0.0000                 0.0000                 0.0000
 Atom AN      X      Y      Z        X      Y      Z        X      Y      Z
   1   6     0.00   0.00  -0.02     0.00  -0.01   0.20    -0.00   0.00  -0.21
   2   6     0.00   0.00   0.19     0.00  -0.00   0.03    -0.00   0.00  -0.03
   3   6     0.00  -0.00   0.09     0.00  -0.00   0.01     0.00   0.00  -0.01
   4   6     0.00  -0.00  -0.08    -0.00   0.00   0.01    -0.00   0.00   0.01
   5   6     0.00  -0.00  -0.19    -0.00   0.00   0.03     0.00   0.00   0.03
   6   6     0.00   0.00   0.02    -0.00   0.01   0.21    -0.00   0.00   0.20
   7   1     0.00   0.04   0.05    -0.02  -0.27  -0.36     0.02   0.29   0.38
   8   1    -0.00  -0.04   0.05     0.02   0.29  -0.37    -0.02  -0.30   0.39
   9   1    -0.00   0.00  -0.00    -0.01   0.01   0.03     0.00  -0.00  -0.03
  10   1    -0.02  -0.26  -0.35    -0.00  -0.04  -0.05     0.00   0.03   0.05
  11   1     0.02   0.26  -0.34     0.00   0.04  -0.05    -0.00  -0.03   0.05
  12   1     0.01   0.11  -0.15     0.00   0.02  -0.02     0.00  -0.01   0.01
  13   1    -0.01  -0.11  -0.15    -0.00  -0.02  -0.02    -0.00   0.01   0.01
  14   1    -0.01  -0.11   0.15     0.00   0.02  -0.02    -0.00   0.01  -0.01
  15   1     0.01   0.11   0.15    -0.00  -0.02  -0.02     0.00  -0.01  -0.01
  16   1     0.02   0.26   0.34    -0.00  -0.04  -0.05    -0.00  -0.03  -0.05
  17   1    -0.02  -0.26   0.35     0.00   0.04  -0.05     0.00   0.03  -0.04
  18   1     0.00   0.04  -0.05     0.02   0.28  -0.38     0.02   0.28  -0.37
  19   1    -0.00   0.00   0.00     0.01  -0.00   0.03     0.00  -0.00   0.03
  20   1    -0.00  -0.04  -0.05    -0.02  -0.30  -0.39    -0.02  -0.29  -0.37
                     46                     47                     48
                        a                      a                      a 
 Frequencies --  2978.2264              2975.5320              2975.3346
 Red. masses --    99.0000                99.0000                99.0000
 Frc consts  --    99.0000                99.0000                99.0000
 IR Inten    --    99.0000                99.0000                99.0000
 Raman Activ --     0.0000                 0.0000                 0.0000
 Depolar     --     0.0000                 0.0000                 0.0000
 Atom AN      X      Y      Z        X      Y      Z        X      Y      Z
   1   6    -0.00   0.00   0.02    -0.00   0.00   0.00     0.00  -0.01   0.00
   2   6    -0.00   0.00  -0.13    -0.01  -0.10  -0.00    -0.00   0.00  -0.00
   3   6    -0.00  -0.00  -0.17     0.01   0.10  -0.00     0.01   0.14  -0.00
   4   6     0.00   0.00  -0.17     0.01   0.11  -0.00    -0.01  -0.14  -0.00
   5   6     0.00   0.00  -0.14    -0.01  -0.10  -0.00     0.00  -0.01  -0.00
   6   6     0.00  -0.00   0.02    -0.00   0.00   0.00    -0.00   0.01   0.00
   7   1    -0.00  -0.04  -0.05    -0.00  -0.01  -0.01     0.00   0.01   0.02
   8   1     0.00   0.04  -0.05    -0.00  -0.01   0.01     0.00   0.01  -0.02
   9   1     0.00  -0.00   0.00     0.01  -0.01  -0.00    -0.01   0.01   0.00
  10   1     0.01   0.18   0.23     0.01   0.19   0.29    -0.00   0.01   0.02
  11   1    -0.01  -0.18   0.24     0.01   0.19  -0.29    -0.00   0.00  -0.00
  12   1    -0.01  -0.21   0.28    -0.01  -0.18   0.28    -0.02  -0.28   0.42
  13   1     0.02   0.23   0.30    -0.01  -0.18  -0.28    -0.02  -0.27  -0.41
  14   1    -0.02  -0.23   0.30    -0.01  -0.20   0.30     0.02   0.26  -0.39
  15   1     0.01   0.21   0.28    -0.01  -0.19  -0.30     0.02   0.27   0.41
  16   1     0.01   0.18   0.24     0.01   0.19   0.29     0.00   0.01   0.01
  17   1    -0.01  -0.18   0.24     0.01   0.19  -0.29     0.00  -0.01   0.01
  18   1     0.00   0.04  -0.05    -0.00  -0.00   0.01    -0.00  -0.01   0.02
  19   1    -0.00   0.00   0.00     0.01  -0.01   0.00     0.01  -0.01   0.00
  20   1    -0.00  -0.04  -0.05    -0.00  -0.01  -0.01    -0.00  -0.01  -0.02
                     49                     50                     51
                        a                      a                      a 
 Frequencies --  3032.4114              3032.9919              2981.6199
 Red. masses --    99.0000                99.0000                99.0000
 Frc consts  --    99.0000                99.0000                99.0000
 IR Inten    --    99.0000                99.0000                99.0000
 Raman Activ --     0.0000                 0.0000                 0.0000
 Depolar     --     0.0000                 0.0000                 0.0000
 Atom AN      X      Y      Z        X      Y      Z        X      Y      Z
   1   6     0.09  -0.19  -0.01     0.09  -0.18  -0.00    -0.01   0.02   0.00
   2   6     0.00  -0.02  -0.00     0.00  -0.02  -0.00    -0.01  -0.14  -0.00
   3   6    -0.00  -0.01  -0.00    -0.00  -0.01  -0.00     0.00  -0.01  -0.00
   4   6     0.00   0.01  -0.00    -0.00  -0.01   0.00    -0.00   0.01  -0.00
   5   6    -0.00   0.02  -0.00     0.00  -0.03   0.00     0.01   0.14  -0.00
   6   6    -0.09   0.18  -0.01     0.10  -0.18   0.00     0.01  -0.02   0.00
   7   1     0.03   0.18   0.30     0.03   0.16   0.26    -0.00  -0.02  -0.03
   8   1     0.03   0.17  -0.28     0.03   0.15  -0.25    -0.00  -0.02   0.03
   9   1    -0.38   0.31   0.00    -0.38   0.31   0.00     0.04  -0.03  -0.00
  10   1     0.00   0.03   0.04     0.00   0.03   0.05     0.02   0.26   0.41
  11   1     0.00   0.03  -0.04     0.00   0.03  -0.05     0.02   0.27  -0.41
  12   1    -0.00   0.01  -0.02     0.00   0.02  -0.04    -0.00   0.00  -0.00
  13   1    -0.00   0.01   0.02     0.00   0.02   0.04    -0.00   0.00   0.00
  14   1     0.00  -0.01   0.02     0.00   0.02  -0.04     0.00  -0.00   0.00
  15   1     0.00  -0.01  -0.02     0.00   0.02   0.04     0.00   0.00  -0.00
  16   1    -0.00  -0.03  -0.04     0.00   0.03   0.05    -0.02  -0.27  -0.41
  17   1    -0.00  -0.03   0.04     0.00   0.04  -0.05    -0.02  -0.26   0.41
  18   1    -0.03  -0.17   0.29     0.03   0.16  -0.28     0.00   0.02  -0.03
  19   1     0.37  -0.29   0.00    -0.40   0.32  -0.00    -0.04   0.03  -0.00
  20   1    -0.03  -0.16  -0.27     0.03   0.16   0.27     0.00   0.02   0.03
                     52                     53                     54
                        a                      a                      a 
 Frequencies --  2988.6951              3037.7394              3038.5164
 Red. masses --    99.0000                99.0000                99.0000
 Frc consts  --    99.0000                99.0000                99.0000
 IR Inten    --    99.0000                99.0000                99.0000
 Raman Activ --     0.0000                 0.0000                 0.0000
 Depolar     --     0.0000                 0.0000                 0.0000
 Atom AN      X      Y      Z        X      Y      Z        X      Y      Z
   1   6    -0.01   0.03   0.00    -0.10  -0.03  -0.00     0.10   0.02   0.00
   2   6    -0.01  -0.10  -0.00    -0.00  -0.01  -0.00     0.00   0.00   0.00
   3   6    -0.01  -0.11  -0.00     0.00  -0.00  -0.00    -0.00   0.00   0.00
   4   6    -0.01  -0.11   0.00     0.00  -0.00   0.00     0.00  -0.00   0.00
   5   6    -0.01  -0.10  -0.00    -0.00  -0.01   0.00    -0.00  -0.00   0.00
   6   6    -0.01   0.03   0.00    -0.10  -0.03   0.00    -0.11  -0.02   0.00
   7   1    -0.00  -0.03  -0.05     0.01   0.22   0.31    -0.01  -0.20  -0.29
   8   1    -0.00  -0.03   0.05     0.01   0.22  -0.31    -0.00  -0.20   0.28
   9   1     0.05  -0.04  -0.00     0.35  -0.31  -0.00    -0.36   0.31   0.00
  10   1     0.01   0.18   0.28    -0.00   0.01   0.01     0.00  -0.00  -0.00
  11   1     0.01   0.18  -0.28    -0.00   0.01  -0.01     0.00  -0.00   0.00
  12   1     0.01   0.19  -0.29     0.00   0.01  -0.01     0.00  -0.00   0.01
  13   1     0.01   0.19   0.29     0.00   0.01   0.01     0.00  -0.00  -0.01
  14   1     0.01   0.19  -0.29     0.00   0.01  -0.01    -0.00   0.00  -0.01
  15   1     0.01   0.19   0.29     0.00   0.01   0.01    -0.00   0.00   0.01
  16   1     0.01   0.19   0.28    -0.00   0.01   0.01    -0.00   0.00   0.00
  17   1     0.01   0.18  -0.28    -0.00   0.01  -0.01    -0.00   0.00  -0.00
  18   1    -0.00  -0.03   0.05     0.01   0.21  -0.30     0.01   0.21  -0.30
  19   1     0.05  -0.04   0.00     0.34  -0.30   0.00     0.37  -0.32   0.00
  20   1    -0.00  -0.03  -0.05     0.01   0.21   0.30     0.00   0.21   0.29
