      -----------------------------------------------------------      
     |                   =====================                   |     
     |                           x T B                           |     
     |                   =====================                   |     
     |                         S. Grimme                         |     
     |          Mulliken Center for Theoretical Chemistry        |     
     |                    University of Bonn                     |     
      -----------------------------------------------------------      

   * xtb version 6.6.1 (8d0f1dd) compiled by 'stahn@M-Bot' on 2023-08-01

   xtb is free software: you can redistribute it and/or modify it under
   the terms of the GNU Lesser General Public License as published by
   the Free Software Foundation, either version 3 of the License, or
   (at your option) any later version.
   
   xtb is distributed in the hope that it will be useful,
   but WITHOUT ANY WARRANTY; without even the implied warranty of
   MERCHANTABILITY or FITNESS FOR A PARTICULAR PURPOSE.  See the
   GNU Lesser General Public License for more details.
   
   Cite this work as:
   * C. Bannwarth, E. Caldeweyher, S. Ehlert, A. Hansen, P. Pracht,
     J. Seibert, S. Spicher, S. Grimme, WIREs Comput. Mol. Sci., 2020, 11,
     e01493. DOI: 10.1002/wcms.1493
   
   for GFN2-xTB:
   * C. Bannwarth, S. Ehlert and S. Grimme., J. Chem. Theory Comput., 2019,
     15, 1652-1671. DOI: 10.1021/acs.jctc.8b01176
   for GFN1-xTB:
   * S. Grimme, C. Bannwarth, P. Shushkov, J. Chem. Theory Comput., 2017,
     13, 1989-2009. DOI: 10.1021/acs.jctc.7b00118
   for GFN0-xTB:
   * P. Pracht, E. Caldeweyher, S. Ehlert, S. Grimme, ChemRxiv, 2019, preprint.
     DOI: 10.26434/chemrxiv.8326202.v1
   for GFN-FF:
   * S. Spicher and S. Grimme, Angew. Chem. Int. Ed., 2020, 59, 15665-15673.
     DOI: 10.1002/anie.202004239
   
   for ALPB and GBSA implicit solvation:
   * S. Ehlert, M. Stahn, S. Spicher, S. Grimme, J. Chem. Theory Comput.,
     2021, 17, 4250-4261. DOI: 10.1021/acs.jctc.1c00471
   
   for DFT-D4:
   * E. Caldeweyher, C. Bannwarth and S. Grimme, J. Chem. Phys., 2017,
     147, 034112. DOI: 10.1063/1.4993215
   * E. Caldeweyher, S. Ehlert, A. Hansen, H. Neugebauer, S. Spicher,
     C. Bannwarth and S. Grimme, J. Chem. Phys., 2019, 150, 154122.
     DOI: 10.1063/1.5090222
   * E. Caldeweyher, J.-M. Mewes, S. Ehlert and S. Grimme, Phys. Chem. Chem. Phys.
     2020, 22, 8499-8512. DOI: 10.1039/D0CP00502A
   
   for sTDA-xTB:
   * S. Grimme and C. Bannwarth, J. Chem. Phys., 2016, 145, 054103.
     DOI: 10.1063/1.4959605
   
   in the mass-spec context:
   * V. Asgeirsson, C. Bauer and S. Grimme, Chem. Sci., 2017, 8, 4879.
     DOI: 10.1039/c7sc00601b
   * J. Koopman and S. Grimme, ACS Omega 2019, 4, 12, 15120-15133.
     DOI: 10.1021/acsomega.9b02011
   
   for metadynamics refer to:
   * S. Grimme, J. Chem. Theory Comput., 2019, 155, 2847-2862
     DOI: 10.1021/acs.jctc.9b00143
   
   for SPH calculations refer to:
   * S. Spicher and S. Grimme, J. Chem. Theory Comput., 2021, 17, 1701-1714
     DOI: 10.1021/acs.jctc.0c01306
   
   with help from (in alphabetical order)
   P. Atkinson, C. Bannwarth, F. Bohle, G. Brandenburg, E. Caldeweyher
   M. Checinski, S. Dohm, S. Ehlert, S. Ehrlich, I. Gerasimov, C. Hölzer
   A. Katbashev, J. Koopman, C. Lavigne, S. Lehtola, F. März, M. Müller,
   F. Musil, H. Neugebauer, J. Pisarek, C. Plett, P. Pracht, F. Pultar,
   J. Seibert, P. Shushkov, S. Spicher, M. Stahn, M. Steiner, T. Strunk,
   J. Stückrath, T. Rose, and J. Unsleber
   
 * started run on 2024/04/23 at 12:10:19.757     

           -------------------------------------------------
          |                Calculation Setup                |
           -------------------------------------------------

          program call               : xtb unfolded.xyz --gfn 2 --ohess -P 4
          coordinate file            : unfolded.xyz
          omp threads                :                     4

   ID    Z sym.   atoms
    1    6 C      1-6
    2    1 H      7-20

           -------------------------------------------------
          |                 G F N 2 - x T B                 |
           -------------------------------------------------

        Reference                      10.1021/acs.jctc.8b01176
      * Hamiltonian:
        H0-scaling (s, p, d)           1.850000    2.230000    2.230000
        zeta-weighting                 0.500000
      * Dispersion:
        s8                             2.700000
        a1                             0.520000
        a2                             5.000000
        s9                             5.000000
      * Repulsion:
        kExp                           1.500000    1.000000
        rExp                           1.000000
      * Coulomb:
        alpha                          2.000000
        third order                    shell-resolved
        anisotropic                    true
        a3                             3.000000
        a5                             4.000000
        cn-shift                       1.200000
        cn-exp                         4.000000
        max-rad                        5.000000


          ...................................................
          :                      SETUP                      :
          :.................................................:
          :  # basis functions                  38          :
          :  # atomic orbitals                  38          :
          :  # shells                           26          :
          :  # electrons                        38          :
          :  max. iterations                   250          :
          :  Hamiltonian                  GFN2-xTB          :
          :  restarted?                      false          :
          :  GBSA solvation                  false          :
          :  PC potential                    false          :
          :  electronic temp.          300.0000000     K    :
          :  accuracy                    1.0000000          :
          :  -> integral cutoff          0.2500000E+02      :
          :  -> integral neglect         0.1000000E-07      :
          :  -> SCF convergence          0.1000000E-05 Eh   :
          :  -> wf. convergence          0.1000000E-03 e    :
          :  Broyden damping             0.4000000          :
          ...................................................

 iter      E             dE          RMSdq      gap      omega  full diag
   1    -20.2321879 -0.202322E+02  0.259E+00   12.92       0.0  T
   2    -20.2876473 -0.554593E-01  0.141E+00   12.70       1.0  T
   3    -20.2882825 -0.635221E-03  0.748E-01   12.70       1.0  T
   4    -20.2884364 -0.153873E-03  0.877E-02   12.73       1.0  T
   5    -20.2884421 -0.574993E-05  0.474E-02   12.73       1.0  T
   6    -20.2884430 -0.853136E-06  0.220E-03   12.73      10.2  T
   7    -20.2884430 -0.272216E-07  0.993E-04   12.73      22.5  T
   8    -20.2884430 -0.892026E-09  0.213E-04   12.73     105.0  T

   *** convergence criteria satisfied after 8 iterations ***

         #    Occupation            Energy/Eh            Energy/eV
      -------------------------------------------------------------
         1        2.0000           -0.6201630             -16.8755
       ...           ...                  ...                  ...
        13        2.0000           -0.4633067             -12.6072
        14        2.0000           -0.4409168             -11.9980
        15        2.0000           -0.4394777             -11.9588
        16        2.0000           -0.4308782             -11.7248
        17        2.0000           -0.4221181             -11.4864
        18        2.0000           -0.4216829             -11.4746
        19        2.0000           -0.4148142             -11.2877 (HOMO)
        20                          0.0530051               1.4423 (LUMO)
        21                          0.1004324               2.7329
        22                          0.1188085               3.2329
        23                          0.1315438               3.5795
        24                          0.1420595               3.8656
       ...                                ...                  ...
        38                          0.3020224               8.2184
      -------------------------------------------------------------
                  HL-Gap            0.4678194 Eh           12.7300 eV
             Fermi-level           -0.1809046 Eh           -4.9227 eV

 SCC (total)                   0 d,  0 h,  0 min,  0.007 sec
 SCC setup                      ...        0 min,  0.000 sec (  4.799%)
 Dispersion                     ...        0 min,  0.001 sec ( 16.734%)
 classical contributions        ...        0 min,  0.000 sec (  3.146%)
 integral evaluation            ...        0 min,  0.000 sec (  6.568%)
 iterations                     ...        0 min,  0.003 sec ( 48.739%)
 molecular gradient             ...        0 min,  0.001 sec ( 15.657%)
 printout                       ...        0 min,  0.000 sec (  3.935%)

         :::::::::::::::::::::::::::::::::::::::::::::::::::::
         ::                     SUMMARY                     ::
         :::::::::::::::::::::::::::::::::::::::::::::::::::::
         :: total energy             -19.992669096348 Eh    ::
         :: gradient norm              0.022813801908 Eh/a0 ::
         :: HOMO-LUMO gap             12.730012484458 eV    ::
         ::.................................................::
         :: SCC energy               -20.288443014614 Eh    ::
         :: -> isotropic ES            0.003673326570 Eh    ::
         :: -> anisotropic ES          0.007070777788 Eh    ::
         :: -> anisotropic XC          0.012578172083 Eh    ::
         :: -> dispersion             -0.010364769077 Eh    ::
         :: repulsion energy           0.295794377847 Eh    ::
         :: add. restraining           0.000000000000 Eh    ::
         :: total charge              -0.000000000000 e     ::
         :::::::::::::::::::::::::::::::::::::::::::::::::::::

      ----------------------------------------------------------- 
     |                   =====================                   |
     |                        A N C O P T                        |
     |                   =====================                   |
     |               Approximate Normal Coordinate               |
     |                Rational Function Optimizer                |
      ----------------------------------------------------------- 

          ...................................................
          :                      SETUP                      :
          :.................................................:
          :   optimization level            normal          :
          :   max. optcycles                   200          :
          :   ANC micro-cycles                  20          :
          :   degrees of freedom                54          :
          :.................................................:
          :   RF solver                   davidson          :
          :   write xtbopt.log                true          :
          :   linear?                        false          :
          :   energy convergence         0.5000000E-05 Eh   :
          :   grad. convergence          0.1000000E-02 Eh/α :
          :   maxmium RF displ.          2.0000000          :
          :   Hlow (freq-cutoff)         0.2000000E-01      :
          :   Hmax (freq-cutoff)         5.0000000          :
          :   S6 in model hess.         70.0000000          :
          ...................................................

generating ANC from model Hessian ...
Using Lindh-Hessian (1995)
 Shifting diagonal of input Hessian by   1.704485763479834E-002
 Lowest  eigenvalues of input Hessian
    0.000000    0.000000    0.000000    0.000000    0.000000    0.000000
    0.020000    0.021172    0.022683    0.024852    0.029253    0.030525
    0.031999    0.034232    0.042369    0.059657    0.061703    0.064603
 Highest eigenvalues
    1.176852    1.180187    1.191425    1.241074    1.268122    1.323979
 

........................................................................
.............................. CYCLE    1 ..............................
........................................................................

 iter      E             dE          RMSdq      gap      omega  full diag
   1    -20.2884430 -0.202884E+02  0.713E-05   12.73       0.0  T
   2    -20.2884430 -0.321521E-11  0.401E-05   12.73     557.0  T
   3    -20.2884430 -0.806466E-12  0.608E-06   12.73    3676.2  T
     SCC iter.                  ...        0 min,  0.001 sec
     gradient                   ...        0 min,  0.001 sec
 * total energy  :   -19.9926691 Eh     change       -0.4912337E-10 Eh
   gradient norm :     0.0228142 Eh/α   predicted     0.0000000E+00 (-100.00%)
   displ. norm   :     0.1326285 α      lambda       -0.1602641E-02
   maximum displ.:     0.0865342 α      in ANC's #23, #16, #5, ...

........................................................................
.............................. CYCLE    2 ..............................
........................................................................

 iter      E             dE          RMSdq      gap      omega  full diag
   1    -20.2939788 -0.202940E+02  0.152E-01   12.93       0.0  T
   2    -20.2939815 -0.269266E-05  0.870E-02   12.93       1.0  T
   3    -20.2939819 -0.409909E-06  0.414E-03   12.93       5.4  T
   4    -20.2939819 -0.359952E-07  0.152E-03   12.93      14.8  T
   5    -20.2939819 -0.128168E-08  0.761E-04   12.93      29.4  T
   6    -20.2939819 -0.338265E-09  0.334E-05   12.93     670.0  T
     SCC iter.                  ...        0 min,  0.002 sec
     gradient                   ...        0 min,  0.001 sec
 * total energy  :   -19.9937010 Eh     change       -0.1031866E-02 Eh
   gradient norm :     0.0100774 Eh/α   predicted    -0.8154520E-03 ( -20.97%)
   displ. norm   :     0.0576441 α      lambda       -0.2432354E-03
   maximum displ.:     0.0342216 α      in ANC's #5, #23, #8, ...

........................................................................
.............................. CYCLE    3 ..............................
........................................................................

 iter      E             dE          RMSdq      gap      omega  full diag
   1    -20.2976120 -0.202976E+02  0.598E-02   13.01       0.0  T
   2    -20.2976135 -0.153343E-05  0.335E-02   13.01       1.0  T
   3    -20.2976136 -0.569663E-07  0.401E-03   13.01       5.6  T
   4    -20.2976136 -0.142714E-07  0.687E-04   13.01      32.6  T
   5    -20.2976136 -0.985114E-09  0.384E-04   13.01      58.2  T
     SCC iter.                  ...        0 min,  0.001 sec
     gradient                   ...        0 min,  0.001 sec
 * total energy  :   -19.9938321 Eh     change       -0.1311829E-03 Eh
   gradient norm :     0.0019436 Eh/α   predicted    -0.1221209E-03 (  -6.91%)
   displ. norm   :     0.0141828 α      lambda       -0.6679825E-05
   maximum displ.:     0.0128970 α      in ANC's #5, #16, #52, ...

........................................................................
.............................. CYCLE    4 ..............................
........................................................................

 iter      E             dE          RMSdq      gap      omega  full diag
   1    -20.2982956 -0.202983E+02  0.798E-03   13.02       0.0  T
   2    -20.2982958 -0.107858E-06  0.443E-03   13.02       5.1  T
   3    -20.2982958 -0.225149E-08  0.122E-03   13.02      18.4  T
   4    -20.2982958 -0.616446E-09  0.176E-04   13.02     126.8  T
   5    -20.2982958 -0.972200E-10  0.888E-05   13.02     251.9  T
     SCC iter.                  ...        0 min,  0.001 sec
     gradient                   ...        0 min,  0.001 sec
 * total energy  :   -19.9938367 Eh     change       -0.4594086E-05 Eh
   gradient norm :     0.0006116 Eh/α   predicted    -0.3343440E-05 ( -27.22%)
   displ. norm   :     0.0069829 α      lambda        0.4533929E-06
   maximum displ.:     0.0059215 α      in ANC's #5, #23, #8, ...

   *** GEOMETRY OPTIMIZATION CONVERGED AFTER 4 ITERATIONS ***

------------------------------------------------------------------------
 total energy gain   :        -0.0011676 Eh       -0.7327 kcal/mol
 total RMSD          :         0.0435569 a0        0.0230 Å
 total power (kW/mol):        -0.7664115 (step) -169.0918 (real)
------------------------------------------------------------------------

 ANCopt (total)                0 d,  0 h,  0 min,  0.018 sec
 optimizer setup                ...        0 min,  0.001 sec (  5.678%)
 model hessian                  ...        0 min,  0.004 sec ( 23.993%)
 ANC generation                 ...        0 min,  0.000 sec (  2.258%)
 coordinate transformation      ...        0 min,  0.000 sec (  0.215%)
 single point calculation       ...        0 min,  0.011 sec ( 61.885%)
 optimization log               ...        0 min,  0.000 sec (  1.597%)
 hessian update                 ...        0 min,  0.000 sec (  0.288%)
 rational function              ...        0 min,  0.000 sec (  1.381%)

================
 final structure:
================
20
 xtb: 6.6.1 (8d0f1dd)
C            3.18254756984211        0.22312803794822       -0.00019308703285
C            1.86855568674036       -0.54876221470802       -0.00104768016175
C            0.65958125972183        0.38383680308190        0.00223735351395
C           -0.65976387195105       -0.38426808568584        0.00133456120800
C           -1.86848180092061        0.54868477220447       -0.00234545746585
C           -3.18286212908246       -0.22252639308493        0.00026476850503
H            3.25502744468751        0.85217632257572        0.88440338755919
H            3.25092988357951        0.86089575632831       -0.87886504276371
H            4.02835235262461       -0.46055496505862       -0.00554065234998
H            1.82587802460383       -1.19010033650297       -0.88427525324567
H            1.82739089868835       -1.19487557791764        0.87875884588618
H            0.70138322552826        1.03018260415064       -0.87772777174250
H            0.70268666106630        1.02598772378833        0.88518349258778
H           -0.70379665897919       -1.02721581481901        0.88366022713009
H           -0.70085892960473       -1.02979681346134       -0.87925751183571
H           -1.82651098620959        1.19576530788565        0.87670594205811
H           -1.82604537477747        1.18901205152030       -0.88631194336244
H           -3.25585571706524       -0.84928369003846        0.88644218987144
H           -4.02827388304780        0.46161987662483       -0.00695705766610
H           -3.25148265544453       -0.86248836483154       -0.87678931069320
           -------------------------------------------------
          |                Final Singlepoint                |
           -------------------------------------------------

          ...................................................
          :                      SETUP                      :
          :.................................................:
          :  # basis functions                  38          :
          :  # atomic orbitals                  38          :
          :  # shells                           26          :
          :  # electrons                        38          :
          :  max. iterations                   250          :
          :  Hamiltonian                  GFN2-xTB          :
          :  restarted?                      false          :
          :  GBSA solvation                  false          :
          :  PC potential                    false          :
          :  electronic temp.          300.0000000     K    :
          :  accuracy                    1.0000000          :
          :  -> integral cutoff          0.2500000E+02      :
          :  -> integral neglect         0.1000000E-07      :
          :  -> SCF convergence          0.1000000E-05 Eh   :
          :  -> wf. convergence          0.1000000E-03 e    :
          :  Broyden damping             0.4000000          :
          ...................................................

 iter      E             dE          RMSdq      gap      omega  full diag
   1    -20.2982958 -0.202983E+02  0.107E-05   13.02       0.0  T
   2    -20.2982958 -0.888178E-13  0.578E-06   13.02    3866.3  T
   3    -20.2982958 -0.106581E-13  0.106E-06   13.02   21085.3  T

   *** convergence criteria satisfied after 3 iterations ***

         #    Occupation            Energy/Eh            Energy/eV
      -------------------------------------------------------------
         1        2.0000           -0.6211411             -16.9021
       ...           ...                  ...                  ...
        13        2.0000           -0.4625216             -12.5859
        14        2.0000           -0.4421939             -12.0327
        15        2.0000           -0.4386644             -11.9367
        16        2.0000           -0.4289594             -11.6726
        17        2.0000           -0.4236157             -11.5272
        18        2.0000           -0.4199477             -11.4274
        19        2.0000           -0.4170700             -11.3491 (HOMO)
        20                          0.0613270               1.6688 (LUMO)
        21                          0.1138080               3.0969
        22                          0.1168127               3.1786
        23                          0.1307125               3.5569
        24                          0.1500883               4.0841
       ...                                ...                  ...
        38                          0.3200778               8.7098
      -------------------------------------------------------------
                  HL-Gap            0.4783971 Eh           13.0178 eV
             Fermi-level           -0.1778715 Eh           -4.8401 eV

 SCC (total)                   0 d,  0 h,  0 min,  0.005 sec
 SCC setup                      ...        0 min,  0.000 sec (  4.977%)
 Dispersion                     ...        0 min,  0.000 sec (  0.836%)
 classical contributions        ...        0 min,  0.000 sec (  0.491%)
 integral evaluation            ...        0 min,  0.000 sec (  6.951%)
 iterations                     ...        0 min,  0.003 sec ( 59.510%)
 molecular gradient             ...        0 min,  0.001 sec ( 21.567%)
 printout                       ...        0 min,  0.000 sec (  5.099%)

         :::::::::::::::::::::::::::::::::::::::::::::::::::::
         ::                     SUMMARY                     ::
         :::::::::::::::::::::::::::::::::::::::::::::::::::::
         :: total energy             -19.993836739218 Eh    ::
         :: gradient norm              0.000611651828 Eh/a0 ::
         :: HOMO-LUMO gap             13.017846392342 eV    ::
         ::.................................................::
         :: SCC energy               -20.298295756122 Eh    ::
         :: -> isotropic ES            0.003911741404 Eh    ::
         :: -> anisotropic ES          0.006803672042 Eh    ::
         :: -> anisotropic XC          0.012735918790 Eh    ::
         :: -> dispersion             -0.010396841106 Eh    ::
         :: repulsion energy           0.304479142711 Eh    ::
         :: add. restraining           0.000000000000 Eh    ::
         :: total charge               0.000000000000 e     ::
         :::::::::::::::::::::::::::::::::::::::::::::::::::::

           ------------------------------------------------- 
          |                Numerical Hessian                |
           ------------------------------------------------- 
step length          :   0.00500
SCC accuracy         :   0.30000
Hessian scale factor :   1.00000
frozen atoms in %    :   0.00000    0
RMS gradient         :   0.00061
estimated CPU  time      0.04 min
estimated wall time      0.01 min

writing file <hessian>.

 projected vibrational frequencies (cm⁻¹)
eigval :       -0.00    -0.00    -0.00     0.00     0.00     0.00
eigval :       67.88    92.59   134.82   135.58   227.37   237.02
eigval :      301.37   370.78   465.00   769.07   785.96   842.46
eigval :      926.11   940.05   942.02  1003.99  1074.48  1079.90
eigval :     1108.54  1118.84  1150.13  1200.17  1229.88  1260.46
eigval :     1268.68  1283.72  1292.96  1319.56  1364.09  1379.42
eigval :     1415.97  1416.12  1495.82  1496.44  1500.13  1502.60
eigval :     1504.80  1504.85  1507.81  1508.07  2955.32  2960.39
eigval :     2968.78  2975.33  2975.53  2978.23  2981.62  2988.70
eigval :     3030.23  3030.73  3032.41  3032.99  3037.74  3038.52
           -------------------------------------------------
          |                Property Printout                |
           -------------------------------------------------

    * Orbital Energies and Occupations

         #    Occupation            Energy/Eh            Energy/eV
      -------------------------------------------------------------
         1        2.0000           -0.6211411             -16.9021
       ...           ...                  ...                  ...
         7        2.0000           -0.5197399             -14.1428
         8        2.0000           -0.5002974             -13.6138
         9        2.0000           -0.4980211             -13.5518
        10        2.0000           -0.4895516             -13.3214
        11        2.0000           -0.4710820             -12.8188
        12        2.0000           -0.4653491             -12.6628
        13        2.0000           -0.4625216             -12.5859
        14        2.0000           -0.4421939             -12.0327
        15        2.0000           -0.4386644             -11.9367
        16        2.0000           -0.4289594             -11.6726
        17        2.0000           -0.4236157             -11.5272
        18        2.0000           -0.4199477             -11.4274
        19        2.0000           -0.4170700             -11.3491 (HOMO)
        20                          0.0613270               1.6688 (LUMO)
        21                          0.1138080               3.0969
        22                          0.1168127               3.1786
        23                          0.1307125               3.5569
        24                          0.1500883               4.0841
        25                          0.1568778               4.2689
        26                          0.1571457               4.2762
        27                          0.1662746               4.5246
        28                          0.1826328               4.9697
        29                          0.1839911               5.0067
        30                          0.1952396               5.3127
       ...                                ...                  ...
        38                          0.3200778               8.7098
      -------------------------------------------------------------
                  HL-Gap            0.4783970 Eh           13.0178 eV
             Fermi-level           -0.1778715 Eh           -4.8401 eV

     #   Z          covCN         q      C6AA      α(0)
     1   6 C        3.752    -0.102    22.509     6.766
     2   6 C        3.801    -0.053    21.522     6.605
     3   6 C        3.803    -0.059    21.635     6.622
     4   6 C        3.803    -0.059    21.635     6.622
     5   6 C        3.801    -0.053    21.522     6.605
     6   6 C        3.752    -0.102    22.509     6.766
     7   1 H        0.925     0.033     2.543     2.494
     8   1 H        0.925     0.033     2.543     2.494
     9   1 H        0.925     0.032     2.551     2.498
    10   1 H        0.924     0.028     2.609     2.526
    11   1 H        0.924     0.028     2.609     2.526
    12   1 H        0.924     0.029     2.598     2.521
    13   1 H        0.924     0.029     2.598     2.521
    14   1 H        0.924     0.029     2.598     2.521
    15   1 H        0.924     0.029     2.599     2.521
    16   1 H        0.924     0.028     2.609     2.526
    17   1 H        0.924     0.028     2.609     2.526
    18   1 H        0.925     0.033     2.543     2.494
    19   1 H        0.925     0.032     2.551     2.498
    20   1 H        0.925     0.033     2.543     2.494

 Mol. C6AA /au·bohr⁶  :       2547.463804
 Mol. C8AA /au·bohr⁸  :      52347.221308
 Mol. α(0) /au        :         75.142945


Wiberg/Mayer (AO) data.
largest (>0.10) Wiberg bond orders for each atom

 ---------------------------------------------------------------------------
     #   Z sym  total        # sym  WBO       # sym  WBO       # sym  WBO
 ---------------------------------------------------------------------------
     1   6 C    3.997 --     2 C    1.019     7 H    0.988     8 H    0.988
                             9 H    0.988
     2   6 C    3.998 --     1 C    1.019     3 C    1.008    11 H    0.979
                            10 H    0.979
     3   6 C    3.997 --     2 C    1.008     4 C    1.007    13 H    0.978
                            12 H    0.978
     4   6 C    3.997 --     5 C    1.008     3 C    1.007    14 H    0.978
                            15 H    0.978
     5   6 C    3.998 --     6 C    1.019     4 C    1.008    17 H    0.979
                            16 H    0.979
     6   6 C    3.997 --     5 C    1.019    18 H    0.988    20 H    0.988
                            19 H    0.988
     7   1 H    0.999 --     1 C    0.988
     8   1 H    0.999 --     1 C    0.988
     9   1 H    0.999 --     1 C    0.988
    10   1 H    0.999 --     2 C    0.979
    11   1 H    0.999 --     2 C    0.979
    12   1 H    0.999 --     3 C    0.978
    13   1 H    0.999 --     3 C    0.978
    14   1 H    0.999 --     4 C    0.978
    15   1 H    0.999 --     4 C    0.978
    16   1 H    0.999 --     5 C    0.979
    17   1 H    0.999 --     5 C    0.979
    18   1 H    0.999 --     6 C    0.988
    19   1 H    0.999 --     6 C    0.988
    20   1 H    0.999 --     6 C    0.988
 ---------------------------------------------------------------------------

Topologies differ in total number of bonds
Writing topology from bond orders to xtbtopo.mol

molecular dipole:
                 x           y           z       tot (Debye)
 q only:        0.000       0.000      -0.000
   full:       -0.000       0.000      -0.000       0.000
molecular quadrupole (traceless):
                xx          xy          yy          xz          yz          zz
 q only:        0.345       0.097      -0.026      -0.000      -0.000      -0.319
  q+dip:       -1.619      -0.295       0.051       0.000       0.000       1.568
   full:       -0.668      -0.116      -0.010       0.000      -0.000       0.678

           -------------------------------------------------
          |                Geometry Summary                 |
           -------------------------------------------------

      molecular mass/u    :       86.1755859
   center of mass at/Å    :       -0.0000727       0.0000284       0.0000282
  moments of inertia/u·Å² :        0.3474859E+02   0.4378715E+03   0.4538209E+03
rotational constants/cm⁻¹ :        0.4851314E+00   0.3849904E-01   0.3714600E-01

 * 19 selected distances

     #   Z          #   Z                                           value/Å
     1   6 C        2   6 C                                       1.5239391
     2   6 C        3   6 C                                       1.5268829
     3   6 C        4   6 C                                       1.5266493
     4   6 C        5   6 C                                       1.5268969 (max)
     5   6 C        6   6 C                                       1.5239323
     1   6 C        7   1 H                                       1.0878723
     1   6 C        8   1 H                                       1.0878825
     1   6 C        9   1 H                                       1.0875831
     2   6 C       10   1 H                                       1.0923494
     2   6 C       11   1 H                                       1.0923446
     3   6 C       12   1 H                                       1.0926340
     3   6 C       13   1 H                                       1.0926161
     4   6 C       14   1 H                                       1.0926205
     4   6 C       15   1 H                                       1.0926293
     5   6 C       16   1 H                                       1.0923399
     5   6 C       17   1 H                                       1.0923447
     6   6 C       18   1 H                                       1.0878710
     6   6 C       19   1 H                                       1.0875797 (min)
     6   6 C       20   1 H                                       1.0878806

 * 2 distinct bonds (by element types)

   Z      Z             #   av. dist./Å        max./Å        min./Å
   1 H    6 C          14     1.0904677     1.0926340     1.0875797
   6 C    6 C           5     1.5256601     1.5268969     1.5239323

           -------------------------------------------------
          |               Frequency Printout                |
           -------------------------------------------------
 projected vibrational frequencies (cm⁻¹)
eigval :       -0.00    -0.00    -0.00     0.00     0.00     0.00
eigval :       67.88    92.59   134.82   135.58   227.37   237.02
eigval :      301.37   370.78   465.00   769.07   785.96   842.46
eigval :      926.11   940.05   942.02  1003.99  1074.48  1079.90
eigval :     1108.54  1118.84  1150.13  1200.17  1229.88  1260.46
eigval :     1268.68  1283.72  1292.96  1319.56  1364.09  1379.42
eigval :     1415.97  1416.12  1495.82  1496.44  1500.13  1502.60
eigval :     1504.80  1504.85  1507.81  1508.07  2955.32  2960.39
eigval :     2968.78  2975.33  2975.53  2978.23  2981.62  2988.70
eigval :     3030.23  3030.73  3032.41  3032.99  3037.74  3038.52
 reduced masses (amu)
   1:  7.02   2:  9.76   3:  9.65   4:  9.96   5:  9.43   6:  8.58   7:  7.78   8:  5.59
   9:  8.19  10:  7.65  11:  1.84  12:  2.37  13:  8.54  14:  9.56  15:  8.59  16:  1.63
  17:  1.99  18:  2.45  19:  2.51  20:  5.40  21:  6.67  22:  1.87  23: 10.10  24:  7.54
  25:  7.64  26:  8.02  27:  8.21  28:  6.49  29:  4.57  30:  3.58  31:  2.54  32:  1.95
  33:  2.14  34:  3.90  35:  4.71  36:  5.71  37:  3.15  38:  3.21  39:  1.92  40:  1.85
  41:  1.99  42:  1.80  43:  1.53  44:  1.53  45:  1.67  46:  1.62  47:  1.90  48:  1.95
  49:  2.01  50:  1.45  51:  1.47  52:  2.05  53:  1.48  54:  1.52  55:  1.96  56:  1.96
  57:  1.93  58:  1.94  59:  1.25  60:  1.26
 IR intensities (km·mol⁻¹)
   1:  0.01   2:  0.00   3:  0.00   4:  0.00   5:  0.00   6:  0.02   7:  0.01   8:  0.00
   9:  0.09  10:  0.05  11:  0.00  12:  0.01  13:  0.00  14:  0.00  15:  0.38  16: 12.72
  17:  0.00  18:  3.48  19:  0.00  20:  0.00  21:  6.84  22:  0.91  23:  0.00  24:  4.75
  25:  0.00  26:  2.76  27:  0.00  28:  0.00  29:  0.70  30:  1.10  31:  0.00  32:  0.00
  33:  0.01  34:  0.00  35:  1.52  36:  0.00  37:  0.00  38:  1.76  39:  0.00  40:  0.21
  41:  0.61  42:  0.00  43:  4.79  44:  0.06  45:  2.27  46:  0.00  47:  0.00  48:  0.64
  49:  0.00  50:  0.13  51:  0.14  52:178.55  53:  0.00  54:136.75  55:  0.08  56:122.35
  57:  0.16  58:121.62  59: 63.30  60:  0.02
 Raman intensities (amu)
   1:  0.00   2:  0.00   3:  0.00   4:  0.00   5:  0.00   6:  0.00   7:  0.00   8:  0.00
   9:  0.00  10:  0.00  11:  0.00  12:  0.00  13:  0.00  14:  0.00  15:  0.00  16:  0.00
  17:  0.00  18:  0.00  19:  0.00  20:  0.00  21:  0.00  22:  0.00  23:  0.00  24:  0.00
  25:  0.00  26:  0.00  27:  0.00  28:  0.00  29:  0.00  30:  0.00  31:  0.00  32:  0.00
  33:  0.00  34:  0.00  35:  0.00  36:  0.00  37:  0.00  38:  0.00  39:  0.00  40:  0.00
  41:  0.00  42:  0.00  43:  0.00  44:  0.00  45:  0.00  46:  0.00  47:  0.00  48:  0.00
  49:  0.00  50:  0.00  51:  0.00  52:  0.00  53:  0.00  54:  0.00  55:  0.00  56:  0.00
  57:  0.00  58:  0.00  59:  0.00  60:  0.00
 output can be read by thermo (or use thermo option).
 writing <g98.out> molden fake output.
 recommended (thermochemical) frequency scaling factor: 1.0
           -------------------------------------------------
          |             Thermodynamic Functions             |
           -------------------------------------------------

Molecule has the following symmetry elements: (i) (C2) (sigma) 
It seems to be the C2h point group
c2h symmetry found (for desy threshold:  0.10E+00) used in thermo

          ...................................................
          :                      SETUP                      :
          :.................................................:
          :  # frequencies                          54      :
          :  # imaginary freq.                       0      :
          :  linear?                             false      :
          :  only rotor calc.                    false      :
          :  symmetry                              c2h      :
          :  rotational number                       2      :
          :  scaling factor                  1.0000000      :
          :  rotor cutoff                   50.0000000 cm⁻¹ :
          :  imag. cutoff                  -20.0000000 cm⁻¹ :
          :.................................................:

    mode    ω/cm⁻¹     T·S(HO)/kcal·mol⁻¹    T·S(FR)/kcal·mol⁻¹   T·S(vib)
   ------------------------------------------------------------------------
       1     67.88    -1.25641 ( 77.25%)    -0.96576 ( 22.75%)    -1.19030
       2     92.59    -1.07471 ( 92.16%)    -0.87385 (  7.84%)    -1.05897
       3    134.82    -0.85751 ( 98.14%)    -0.76258 (  1.86%)    -0.85574
       4    135.58    -0.85430 ( 98.18%)    -0.76092 (  1.82%)    -0.85260
       5    227.37    -0.56638 ( 99.77%)    -0.60781 (  0.23%)    -0.56648
       6    237.02    -0.54417 ( 99.80%)    -0.59550 (  0.20%)    -0.54427
   ------------------------------------------------------------------------

   temp. (K)  partition function   enthalpy   heat capacity  entropy
                                   cal/mol     cal/K/mol   cal/K/mol   J/K/mol
 298.15  VIB   195.                 3524.534     22.809     22.018
         ROT  0.100E+06              888.752      2.981     25.867
         INT  0.196E+08             4413.286     25.790     47.885
         TR   0.774E+27             1481.254      4.968     39.257
         TOT                        5894.5402    30.7578    87.1422   364.6028

       T/K    H(0)-H(T)+PV         H(T)/Eh          T*S/Eh         G(T)/Eh
   ------------------------------------------------------------------------
    298.15    0.939355E-02    0.196686E+00    0.414040E-01    0.155282E+00
   ------------------------------------------------------------------------

         :::::::::::::::::::::::::::::::::::::::::::::::::::::
         ::                  THERMODYNAMIC                  ::
         :::::::::::::::::::::::::::::::::::::::::::::::::::::
         :: total free energy         -19.838554520754 Eh   ::
         ::.................................................::
         :: total energy              -19.993836739218 Eh   ::
         :: zero point energy           0.187292720011 Eh   ::
         :: G(RRHO) w/o ZPVE           -0.032010501547 Eh   ::
         :: G(RRHO) contrib.            0.155282218464 Eh   ::
         :::::::::::::::::::::::::::::::::::::::::::::::::::::
 
 normal mode %tage of torsion character
   1:  0.00   2:  0.00   3:  0.00   4:  0.00   5:  0.00   6:  0.00   7:  0.40   8:  0.70
   9:  0.43  10:  0.56  11:  0.90  12:  0.89  13:  0.12  14:  0.04  15:  0.05  16:  0.54
  17:  0.50  18:  0.57  19:  0.45  20:  0.09  21:  0.11  22:  0.38  23:  0.03  24:  0.07
  25:  0.03  26:  0.03  27:  0.06  28:  0.58  29:  0.40  30:  0.07  31:  0.22  32:  0.10
  33:  0.20  34:  0.07  35:  0.06  36:  0.06  37:  0.00  38:  0.00  39:  0.66  40:  0.62
  41:  0.66  42:  0.58  43:  0.93  44:  0.93  45:  0.84  46:  0.86  47:  0.40  48:  0.37
  49:  0.17  50:  0.01  51:  0.01  52:  0.01  53:  0.01  54:  0.01  55:  0.07  56:  0.07
  57:  0.04  58:  0.04  59:  0.00  60:  0.00
 recommended # of modes for mode following           4

optimized geometry written to: xtbopt.xyz


           -------------------------------------------------
          | TOTAL ENERGY              -19.993836739218 Eh   |
          | TOTAL ENTHALPY            -19.797150471544 Eh   |
          | TOTAL FREE ENERGY         -19.838554520754 Eh   |
          | GRADIENT NORM               0.000611653927 Eh/α |
          | HOMO-LUMO GAP              13.017846326153 eV   |
           -------------------------------------------------

------------------------------------------------------------------------
 * finished run on 2024/04/23 at 12:10:20.046     
------------------------------------------------------------------------
 total:
 * wall-time:     0 d,  0 h,  0 min,  0.288 sec
 *  cpu-time:     0 d,  0 h,  0 min,  1.001 sec
 * ratio c/w:     3.469 speedup
 SCF:
 * wall-time:     0 d,  0 h,  0 min,  0.007 sec
 *  cpu-time:     0 d,  0 h,  0 min,  0.026 sec
 * ratio c/w:     3.521 speedup
 ANC optimizer:
 * wall-time:     0 d,  0 h,  0 min,  0.029 sec
 *  cpu-time:     0 d,  0 h,  0 min,  0.102 sec
 * ratio c/w:     3.521 speedup
 analytical hessian:
 * wall-time:     0 d,  0 h,  0 min,  0.183 sec
 *  cpu-time:     0 d,  0 h,  0 min,  0.719 sec
 * ratio c/w:     3.932 speedup

