20
 energy: -19.992669096397 gnorm: 0.022814200975 xtb: 6.6.1 (8d0f1dd)
C            3.19791600000000        0.21903300000000       -0.00051300000000
C            1.88271900000000       -0.54387000000000       -0.00149100000000
C            0.66317100000000        0.37932100000000        0.00279800000000
C           -0.66349100000000       -0.38026500000000        0.00116900000000
C           -1.88196300000000        0.54384200000000       -0.00223700000000
C           -3.19820400000000       -0.21819100000000        0.00030300000000
H            3.28318900000000        0.85742800000000        0.88173700000000
H            3.27907400000000        0.86774300000000       -0.87574100000000
H            4.06124700000000       -0.45108800000000       -0.00634200000000
H            1.83103100000000       -1.20928400000000       -0.87354900000000
H            1.83331700000000       -1.21289600000000        0.86795700000000
H            0.70545700000000        1.04787400000000       -0.86629900000000
H            0.70673400000000        1.04355500000000        0.87499300000000
H           -0.70811600000000       -1.04518600000000        0.87283200000000
H           -0.70454900000000       -1.04786700000000       -0.86860300000000
H           -1.83113500000000        1.21506900000000        0.86587500000000
H           -1.83124200000000        1.20799700000000       -0.87579000000000
H           -3.28555500000000       -0.85456400000000        0.88332400000000
H           -4.06144400000000        0.45169800000000       -0.00819900000000
H           -3.27975500000000       -0.86893200000000       -0.87254400000000
20
 energy: -19.993700962270 gnorm: 0.010077365808 xtb: 6.6.1 (8d0f1dd)
C            3.18700356281514        0.22185336771293       -0.00038269405125
C            1.87417086056323       -0.54569520749713       -0.00108732879706
C            0.66055900264136        0.38260220768787        0.00240547529587
C           -0.66080421609492       -0.38324836736803        0.00133048228155
C           -1.87390411482162        0.54545415440928       -0.00236558216889
C           -3.18740175502609       -0.22112133777537        0.00027216935349
H            3.26723713107052        0.85317667886408        0.88445413307178
H            3.26294773036087        0.86296359193160       -0.87859065960388
H            4.03795694479948       -0.45875467958141       -0.00624564832255
H            1.82993017182616       -1.19498407344851       -0.88234894429054
H            1.83200032754598       -1.19947197029153        0.87699230013423
H            0.70267729455819        1.03598664664227       -0.87574510346278
H            0.70404186649903        1.03125701658580        0.88388364705750
H           -0.70531631855933       -1.03303738578401        0.88197335101817
H           -0.70202251929827       -1.03546419408710       -0.87764759306374
H           -1.83047084657079        1.20057167471273        0.87475536466666
H           -1.83032386263334        1.19367952875924       -0.88460726118247
H           -3.26867668803553       -0.85005765612761        0.88666761008141
H           -4.03785901640444        0.46011068405500       -0.00783030136621
H           -3.26334455523564       -0.86440367940011       -0.87620341665129
20
 energy: -19.993832145126 gnorm: 0.001943577521 xtb: 6.6.1 (8d0f1dd)
C            3.18305931715937        0.22310336761441       -0.00025558996942
C            1.86972843481382       -0.54749434057836       -0.00107420583386
C            0.65955492113896        0.38364287674266        0.00238837845332
C           -0.65977825308376       -0.38417325843154        0.00129688871382
C           -1.86962249124698        0.54736356055841       -0.00236367653381
C           -3.18339651322679       -0.22244624768593        0.00026007360469
H            3.25804894195992        0.85199779730586        0.88466315622518
H            3.25370308538336        0.86117313870116       -0.87894786461192
H            4.02874760933780       -0.46137722053052       -0.00593542163549
H            1.82730258805647       -1.18957755176040       -0.88461005629732
H            1.82902606652655       -1.19423554318187        0.87911785165586
H            0.70139993316931        1.03038638147472       -0.87796223890439
H            0.70272940525308        1.02601262332766        0.88585768170757
H           -0.70390155901955       -1.02745355339664        0.88405941625503
H           -0.70085395105853       -1.03001421557057       -0.87976086126424
H           -1.82794427732450        1.19519053267543        0.87699230196956
H           -1.82754323370394        1.18833373990846       -0.88671107839339
H           -3.25904889483587       -0.84889717449705        0.88688279361895
H           -4.02856996716007        0.46267118469715       -0.00741596572088
H           -3.25424016213866       -0.86278909737305       -0.87680158303927
20
 energy: -19.993836739212 gnorm: 0.000611598842 xtb: 6.6.1 (8d0f1dd)
C            3.18254756984211        0.22312803794822       -0.00019308703285
C            1.86855568674036       -0.54876221470802       -0.00104768016175
C            0.65958125972183        0.38383680308190        0.00223735351395
C           -0.65976387195105       -0.38426808568584        0.00133456120800
C           -1.86848180092061        0.54868477220447       -0.00234545746585
C           -3.18286212908246       -0.22252639308493        0.00026476850503
H            3.25502744468751        0.85217632257572        0.88440338755919
H            3.25092988357951        0.86089575632831       -0.87886504276371
H            4.02835235262461       -0.46055496505862       -0.00554065234998
H            1.82587802460383       -1.19010033650297       -0.88427525324567
H            1.82739089868835       -1.19487557791764        0.87875884588618
H            0.70138322552826        1.03018260415064       -0.87772777174250
H            0.70268666106630        1.02598772378833        0.88518349258778
H           -0.70379665897919       -1.02721581481901        0.88366022713009
H           -0.70085892960473       -1.02979681346134       -0.87925751183571
H           -1.82651098620959        1.19576530788565        0.87670594205811
H           -1.82604537477747        1.18901205152030       -0.88631194336244
H           -3.25585571706524       -0.84928369003846        0.88644218987144
H           -4.02827388304780        0.46161987662483       -0.00695705766610
H           -3.25148265544453       -0.86248836483154       -0.87678931069320
