      -----------------------------------------------------------      
     |                   =====================                   |     
     |                           x T B                           |     
     |                   =====================                   |     
     |                         S. Grimme                         |     
     |          Mulliken Center for Theoretical Chemistry        |     
     |                    University of Bonn                     |     
      -----------------------------------------------------------      

   * xtb version 6.6.1 (8d0f1dd) compiled by 'stahn@M-Bot' on 2023-08-01

   xtb is free software: you can redistribute it and/or modify it under
   the terms of the GNU Lesser General Public License as published by
   the Free Software Foundation, either version 3 of the License, or
   (at your option) any later version.
   
   xtb is distributed in the hope that it will be useful,
   but WITHOUT ANY WARRANTY; without even the implied warranty of
   MERCHANTABILITY or FITNESS FOR A PARTICULAR PURPOSE.  See the
   GNU Lesser General Public License for more details.
   
   Cite this work as:
   * C. Bannwarth, E. Caldeweyher, S. Ehlert, A. Hansen, P. Pracht,
     J. Seibert, S. Spicher, S. Grimme, WIREs Comput. Mol. Sci., 2020, 11,
     e01493. DOI: 10.1002/wcms.1493
   
   for GFN2-xTB:
   * C. Bannwarth, S. Ehlert and S. Grimme., J. Chem. Theory Comput., 2019,
     15, 1652-1671. DOI: 10.1021/acs.jctc.8b01176
   for GFN1-xTB:
   * S. Grimme, C. Bannwarth, P. Shushkov, J. Chem. Theory Comput., 2017,
     13, 1989-2009. DOI: 10.1021/acs.jctc.7b00118
   for GFN0-xTB:
   * P. Pracht, E. Caldeweyher, S. Ehlert, S. Grimme, ChemRxiv, 2019, preprint.
     DOI: 10.26434/chemrxiv.8326202.v1
   for GFN-FF:
   * S. Spicher and S. Grimme, Angew. Chem. Int. Ed., 2020, 59, 15665-15673.
     DOI: 10.1002/anie.202004239
   
   for ALPB and GBSA implicit solvation:
   * S. Ehlert, M. Stahn, S. Spicher, S. Grimme, J. Chem. Theory Comput.,
     2021, 17, 4250-4261. DOI: 10.1021/acs.jctc.1c00471
   
   for DFT-D4:
   * E. Caldeweyher, C. Bannwarth and S. Grimme, J. Chem. Phys., 2017,
     147, 034112. DOI: 10.1063/1.4993215
   * E. Caldeweyher, S. Ehlert, A. Hansen, H. Neugebauer, S. Spicher,
     C. Bannwarth and S. Grimme, J. Chem. Phys., 2019, 150, 154122.
     DOI: 10.1063/1.5090222
   * E. Caldeweyher, J.-M. Mewes, S. Ehlert and S. Grimme, Phys. Chem. Chem. Phys.
     2020, 22, 8499-8512. DOI: 10.1039/D0CP00502A
   
   for sTDA-xTB:
   * S. Grimme and C. Bannwarth, J. Chem. Phys., 2016, 145, 054103.
     DOI: 10.1063/1.4959605
   
   in the mass-spec context:
   * V. Asgeirsson, C. Bauer and S. Grimme, Chem. Sci., 2017, 8, 4879.
     DOI: 10.1039/c7sc00601b
   * J. Koopman and S. Grimme, ACS Omega 2019, 4, 12, 15120-15133.
     DOI: 10.1021/acsomega.9b02011
   
   for metadynamics refer to:
   * S. Grimme, J. Chem. Theory Comput., 2019, 155, 2847-2862
     DOI: 10.1021/acs.jctc.9b00143
   
   for SPH calculations refer to:
   * S. Spicher and S. Grimme, J. Chem. Theory Comput., 2021, 17, 1701-1714
     DOI: 10.1021/acs.jctc.0c01306
   
   with help from (in alphabetical order)
   P. Atkinson, C. Bannwarth, F. Bohle, G. Brandenburg, E. Caldeweyher
   M. Checinski, S. Dohm, S. Ehlert, S. Ehrlich, I. Gerasimov, C. Hölzer
   A. Katbashev, J. Koopman, C. Lavigne, S. Lehtola, F. März, M. Müller,
   F. Musil, H. Neugebauer, J. Pisarek, C. Plett, P. Pracht, F. Pultar,
   J. Seibert, P. Shushkov, S. Spicher, M. Stahn, M. Steiner, T. Strunk,
   J. Stückrath, T. Rose, and J. Unsleber
   
 * started run on 2024/04/23 at 12:10:39.089     

           -------------------------------------------------
          |                Calculation Setup                |
           -------------------------------------------------

          program call               : xtb unfolded.xyz --gfn 2 --ohess -P 4
          coordinate file            : unfolded.xyz
          omp threads                :                     4

   ID    Z sym.   atoms
    1    6 C      1-14
    2    1 H      15-44

           -------------------------------------------------
          |                 G F N 2 - x T B                 |
           -------------------------------------------------

        Reference                      10.1021/acs.jctc.8b01176
      * Hamiltonian:
        H0-scaling (s, p, d)           1.850000    2.230000    2.230000
        zeta-weighting                 0.500000
      * Dispersion:
        s8                             2.700000
        a1                             0.520000
        a2                             5.000000
        s9                             5.000000
      * Repulsion:
        kExp                           1.500000    1.000000
        rExp                           1.000000
      * Coulomb:
        alpha                          2.000000
        third order                    shell-resolved
        anisotropic                    true
        a3                             3.000000
        a5                             4.000000
        cn-shift                       1.200000
        cn-exp                         4.000000
        max-rad                        5.000000


          ...................................................
          :                      SETUP                      :
          :.................................................:
          :  # basis functions                  86          :
          :  # atomic orbitals                  86          :
          :  # shells                           58          :
          :  # electrons                        86          :
          :  max. iterations                   250          :
          :  Hamiltonian                  GFN2-xTB          :
          :  restarted?                      false          :
          :  GBSA solvation                  false          :
          :  PC potential                    false          :
          :  electronic temp.          300.0000000     K    :
          :  accuracy                    1.0000000          :
          :  -> integral cutoff          0.2500000E+02      :
          :  -> integral neglect         0.1000000E-07      :
          :  -> SCF convergence          0.1000000E-05 Eh   :
          :  -> wf. convergence          0.1000000E-03 e    :
          :  Broyden damping             0.4000000          :
          ...................................................

 iter      E             dE          RMSdq      gap      omega  full diag
   1    -45.8464572 -0.458465E+02  0.252E+00   12.02       0.0  T
   2    -45.9620810 -0.115624E+00  0.136E+00   11.98       1.0  T
   3    -45.9636308 -0.154988E-02  0.722E-01   11.98       1.0  T
   4    -45.9639547 -0.323909E-03  0.832E-02   12.01       1.0  T
   5    -45.9639628 -0.805976E-05  0.421E-02   12.01       1.0  T
   6    -45.9639654 -0.261906E-05  0.206E-03   12.01       7.3  T
   7    -45.9639655 -0.367970E-07  0.926E-04   12.01      16.3  T
   8    -45.9639655 -0.298397E-08  0.262E-04   12.01      57.6  T

   *** convergence criteria satisfied after 8 iterations ***

         #    Occupation            Energy/Eh            Energy/eV
      -------------------------------------------------------------
         1        2.0000           -0.6223759             -16.9357
       ...           ...                  ...                  ...
        37        2.0000           -0.4242378             -11.5441
        38        2.0000           -0.4200124             -11.4291
        39        2.0000           -0.4181688             -11.3790
        40        2.0000           -0.4157157             -11.3122
        41        2.0000           -0.4146453             -11.2831
        42        2.0000           -0.4130007             -11.2383
        43        2.0000           -0.4101694             -11.1613 (HOMO)
        44                          0.0313024               0.8518 (LUMO)
        45                          0.0462089               1.2574
        46                          0.0908856               2.4731
        47                          0.0926780               2.5219
        48                          0.1000522               2.7226
       ...                                ...                  ...
        86                          0.3100657               8.4373
      -------------------------------------------------------------
                  HL-Gap            0.4414718 Eh           12.0131 eV
             Fermi-level           -0.1894335 Eh           -5.1547 eV

 SCC (total)                   0 d,  0 h,  0 min,  0.037 sec
 SCC setup                      ...        0 min,  0.001 sec (  2.430%)
 Dispersion                     ...        0 min,  0.000 sec (  1.042%)
 classical contributions        ...        0 min,  0.000 sec (  0.110%)
 integral evaluation            ...        0 min,  0.001 sec (  3.966%)
 iterations                     ...        0 min,  0.028 sec ( 74.596%)
 molecular gradient             ...        0 min,  0.005 sec ( 13.623%)
 printout                       ...        0 min,  0.002 sec (  4.137%)

         :::::::::::::::::::::::::::::::::::::::::::::::::::::
         ::                     SUMMARY                     ::
         :::::::::::::::::::::::::::::::::::::::::::::::::::::
         :: total energy             -45.305271656885 Eh    ::
         :: gradient norm              0.033367594294 Eh/a0 ::
         :: HOMO-LUMO gap             12.013059658962 eV    ::
         ::.................................................::
         :: SCC energy               -45.963965453912 Eh    ::
         :: -> isotropic ES            0.007093419204 Eh    ::
         :: -> anisotropic ES          0.014903213309 Eh    ::
         :: -> anisotropic XC          0.026936743200 Eh    ::
         :: -> dispersion             -0.028447540998 Eh    ::
         :: repulsion energy           0.658966749487 Eh    ::
         :: add. restraining           0.000000000000 Eh    ::
         :: total charge               0.000000000000 e     ::
         :::::::::::::::::::::::::::::::::::::::::::::::::::::

      ----------------------------------------------------------- 
     |                   =====================                   |
     |                        A N C O P T                        |
     |                   =====================                   |
     |               Approximate Normal Coordinate               |
     |                Rational Function Optimizer                |
      ----------------------------------------------------------- 

          ...................................................
          :                      SETUP                      :
          :.................................................:
          :   optimization level            normal          :
          :   max. optcycles                   200          :
          :   ANC micro-cycles                  20          :
          :   degrees of freedom               126          :
          :.................................................:
          :   RF solver                   davidson          :
          :   write xtbopt.log                true          :
          :   linear?                        false          :
          :   energy convergence         0.5000000E-05 Eh   :
          :   grad. convergence          0.1000000E-02 Eh/α :
          :   maxmium RF displ.          2.0000000          :
          :   Hlow (freq-cutoff)         0.2000000E-01      :
          :   Hmax (freq-cutoff)         5.0000000          :
          :   S6 in model hess.         70.0000000          :
          ...................................................

generating ANC from model Hessian ...
Using Lindh-Hessian (1995)
 Shifting diagonal of input Hessian by   1.969237362048712E-002
 Lowest  eigenvalues of input Hessian
    0.000000    0.000000    0.000000    0.000000    0.000000    0.000000
    0.020000    0.020815    0.021056    0.021991    0.022518    0.022970
    0.023310    0.024251    0.024783    0.025249    0.026438    0.026750
 Highest eigenvalues
    1.239008    1.249090    1.269105    1.298275    1.326029    1.338655
 

........................................................................
.............................. CYCLE    1 ..............................
........................................................................

 iter      E             dE          RMSdq      gap      omega  full diag
   1    -45.9639655 -0.459640E+02  0.882E-05   12.01       0.0  T
   2    -45.9639655 -0.140901E-10  0.508E-05   12.01     296.8  T
   3    -45.9639655 -0.227374E-11  0.101E-05   12.01    1492.1  T
     SCC iter.                  ...        0 min,  0.004 sec
     gradient                   ...        0 min,  0.005 sec
 * total energy  :   -45.3052717 Eh     change       -0.2349978E-09 Eh
   gradient norm :     0.0333675 Eh/α   predicted     0.0000000E+00 (-100.00%)
   displ. norm   :     0.1890353 α      lambda       -0.3599889E-02
   maximum displ.:     0.0997755 α      in ANC's #57, #56, #10, ...

........................................................................
.............................. CYCLE    2 ..............................
........................................................................

 iter      E             dE          RMSdq      gap      omega  full diag
   1    -45.9746261 -0.459746E+02  0.123E-01   12.09       0.0  T
   2    -45.9746312 -0.511948E-05  0.704E-02   12.09       1.0  T
   3    -45.9746322 -0.104656E-05  0.329E-03   12.09       4.6  T
   4    -45.9746323 -0.542556E-07  0.123E-03   12.09      12.3  T
   5    -45.9746323 -0.210858E-08  0.628E-04   12.09      24.0  T
   6    -45.9746323 -0.541981E-09  0.376E-05   12.09     400.7  T
     SCC iter.                  ...        0 min,  0.006 sec
     gradient                   ...        0 min,  0.005 sec
 * total energy  :   -45.3076667 Eh     change       -0.2395054E-02 Eh
   gradient norm :     0.0151995 Eh/α   predicted    -0.1864282E-02 ( -22.16%)
   displ. norm   :     0.1204613 α      lambda       -0.7522419E-03
   maximum displ.:     0.0483533 α      in ANC's #10, #57, #56, ...

........................................................................
.............................. CYCLE    3 ..............................
........................................................................

 iter      E             dE          RMSdq      gap      omega  full diag
   1    -45.9828154 -0.459828E+02  0.629E-02   12.14       0.0  T
   2    -45.9828189 -0.354529E-05  0.355E-02   12.15       1.0  T
   3    -45.9828191 -0.183528E-06  0.373E-03   12.14       4.0  T
   4    -45.9828191 -0.360018E-07  0.649E-04   12.14      23.2  T
   5    -45.9828191 -0.236769E-08  0.367E-04   12.14      41.1  T
     SCC iter.                  ...        0 min,  0.005 sec
     gradient                   ...        0 min,  0.005 sec
 * total energy  :   -45.3080859 Eh     change       -0.4191674E-03 Eh
   gradient norm :     0.0023142 Eh/α   predicted    -0.3816092E-03 (  -8.96%)
   displ. norm   :     0.0474499 α      lambda       -0.5031445E-04
   maximum displ.:     0.0263613 α      in ANC's #10, #15, #8, ...

........................................................................
.............................. CYCLE    4 ..............................
........................................................................

 iter      E             dE          RMSdq      gap      omega  full diag
   1    -45.9847851 -0.459848E+02  0.126E-02   12.17       0.0  T
   2    -45.9847853 -0.156965E-06  0.712E-03   12.17       2.1  T
   3    -45.9847853 -0.468336E-08  0.871E-04   12.17      17.3  T
   4    -45.9847853 -0.154557E-08  0.164E-04   12.17      92.0  T
     SCC iter.                  ...        0 min,  0.004 sec
     gradient                   ...        0 min,  0.005 sec
 * total energy  :   -45.3081254 Eh     change       -0.3948066E-04 Eh
   gradient norm :     0.0014365 Eh/α   predicted    -0.2622127E-04 ( -33.58%)
   displ. norm   :     0.1109347 α      lambda       -0.5045528E-04
   maximum displ.:     0.0640767 α      in ANC's #10, #15, #8, ...

........................................................................
.............................. CYCLE    5 ..............................
........................................................................

 iter      E             dE          RMSdq      gap      omega  full diag
   1    -45.9870751 -0.459871E+02  0.242E-02   12.23       0.0  T
   2    -45.9870753 -0.136591E-06  0.140E-02   12.23       1.1  T
   3    -45.9870753 -0.243930E-07  0.732E-04   12.23      20.6  T
   4    -45.9870753 -0.276719E-08  0.330E-04   12.23      45.7  T
     SCC iter.                  ...        0 min,  0.004 sec
     gradient                   ...        0 min,  0.005 sec
 * total energy  :   -45.3081587 Eh     change       -0.3335686E-04 Eh
   gradient norm :     0.0028271 Eh/α   predicted    -0.2537997E-04 ( -23.91%)
   displ. norm   :     0.0745908 α      lambda        0.6813228E-04
   maximum displ.:     0.0431090 α      in ANC's #10, #15, #8, ...

........................................................................
.............................. CYCLE    6 ..............................
........................................................................

 iter      E             dE          RMSdq      gap      omega  full diag
   1    -45.9885243 -0.459885E+02  0.162E-02   12.27       0.0  T
   2    -45.9885244 -0.596053E-07  0.940E-03   12.27       1.6  T
   3    -45.9885244 -0.108576E-07  0.491E-04   12.27      30.7  T
   4    -45.9885244 -0.132592E-08  0.224E-04   12.27      67.4  T
     SCC iter.                  ...        0 min,  0.005 sec
     gradient                   ...        0 min,  0.005 sec
 * total energy  :   -45.3081340 Eh     change        0.2475038E-04 Eh
   gradient norm :     0.0042081 Eh/α   predicted     0.3425098E-04 (  38.39%)
   displ. norm   :     0.0773198 α      lambda       -0.5826964E-04
   maximum displ.:     0.0431396 α      in ANC's #10, #15, #8, ...

........................................................................
.............................. CYCLE    7 ..............................
........................................................................

 iter      E             dE          RMSdq      gap      omega  full diag
   1    -45.9863061 -0.459863E+02  0.185E-02   12.23       0.0  T
   2    -45.9863063 -0.188179E-06  0.106E-02   12.23       1.4  T
   3    -45.9863063 -0.143052E-07  0.861E-04   12.23      17.5  T
   4    -45.9863063 -0.257528E-08  0.265E-04   12.23      56.9  T
     SCC iter.                  ...        0 min,  0.004 sec
     gradient                   ...        0 min,  0.005 sec
 * total energy  :   -45.3081657 Eh     change       -0.3169237E-04 Eh
   gradient norm :     0.0012586 Eh/α   predicted    -0.2931229E-04 (  -7.51%)
   displ. norm   :     0.0135692 α      lambda       -0.3631538E-05
   maximum displ.:     0.0074500 α      in ANC's #1, #17, #20, ...

........................................................................
.............................. CYCLE    8 ..............................
........................................................................

 iter      E             dE          RMSdq      gap      omega  full diag
   1    -45.9857528 -0.459858E+02  0.291E-03   12.23       0.0  T
   2    -45.9857528 -0.292610E-07  0.164E-03   12.23       9.2  T
   3    -45.9857528 -0.548816E-09  0.428E-04   12.23      35.3  T
   4    -45.9857528 -0.257018E-09  0.644E-05   12.23     233.9  T
     SCC iter.                  ...        0 min,  0.004 sec
     gradient                   ...        0 min,  0.005 sec
 * total energy  :   -45.3081695 Eh     change       -0.3852270E-05 Eh
   gradient norm :     0.0002264 Eh/α   predicted    -0.1817043E-05 ( -52.83%)
   displ. norm   :     0.0322333 α      lambda       -0.3431168E-05
   maximum displ.:     0.0185350 α      in ANC's #1, #10, #17, ...

   *** GEOMETRY OPTIMIZATION CONVERGED AFTER 8 ITERATIONS ***

------------------------------------------------------------------------
 total energy gain   :        -0.0028979 Eh       -1.8184 kcal/mol
 total RMSD          :         0.0614460 a0        0.0325 Å
 total power (kW/mol):        -0.9510393 (step)  -66.6735 (real)
------------------------------------------------------------------------

 ANCopt (total)                0 d,  0 h,  0 min,  0.114 sec
 optimizer setup                ...        0 min,  0.001 sec (  1.100%)
 model hessian                  ...        0 min,  0.014 sec ( 12.013%)
 ANC generation                 ...        0 min,  0.002 sec (  1.323%)
 coordinate transformation      ...        0 min,  0.000 sec (  0.151%)
 single point calculation       ...        0 min,  0.094 sec ( 82.150%)
 optimization log               ...        0 min,  0.001 sec (  0.982%)
 hessian update                 ...        0 min,  0.000 sec (  0.126%)
 rational function              ...        0 min,  0.001 sec (  0.936%)

================
 final structure:
================
44
 xtb: 6.6.1 (8d0f1dd)
C            6.98021710201613        2.22484569226821        0.21240297686445
C            6.32983437389305        0.92711966070837       -0.25127797939984
C            4.88043380858687        0.82140654269493        0.21586915162188
C            4.20994914697947       -0.46591315183295       -0.25766537717878
C            2.76325195820547       -0.56142124511684        0.22104877342827
C            2.07502394083750       -1.82875659629397       -0.28107670760516
C            0.65314473974321       -1.99893143035514        0.25582904453704
C           -0.31643656600576       -0.93487195985053       -0.25331794417953
C           -1.74248610787034       -1.17556716300845        0.23611567767050
C           -2.69716552265881       -0.08552219406885       -0.24485110751870
C           -4.12456785050206       -0.30387049473161        0.24984925495041
C           -5.06531651265674        0.80588301009494       -0.21298194542825
C           -6.49487178629374        0.59317043813205        0.27844504254181
C           -7.42261348736766        1.71525503382871       -0.17112309455414
H            6.96900451668354        2.28992382346303        1.29836691783414
H            8.01297141499633        2.27911608406902       -0.12412847371243
H            6.44374310040226        3.08337193267362       -0.18614337290651
H            6.89670538140461        0.07762416790689        0.13666926474158
H            6.36175654060922        0.87475655765741       -1.34208523354034
H            4.85038386467193        0.86289485608628        1.30745352637758
H            4.31833730486051        1.67925922078907       -0.16157494965623
H            4.77370048977733       -1.32580881097468        0.11233789172578
H            4.23155651462289       -0.50355852819712       -1.34960794429326
H            2.21964153555395        0.31685958328472       -0.13085606570446
H            2.74353569824367       -0.54975893026582        1.31353935270157
H            2.66935165110087       -2.69406753108148        0.02358642443482
H            2.04867300587110       -1.81637900038586       -1.37336555611093
H            0.67521579511484       -1.97369000742414        1.34800278095602
H            0.28204841358039       -2.98275621610074       -0.04275340702368
H           -0.30589040980059       -0.93097384899068       -1.34595723256831
H            0.00743448968584        0.05036506704942        0.08592664781019
H           -1.74844422240454       -1.20391853670416        1.32848102126313
H           -2.09178458343473       -2.14762559270828       -0.12025389196574
H           -2.33982745581063        0.88516310466194        0.10786520106699
H           -2.69378732234018       -0.05973455114714       -1.33725195718947
H           -4.12551314490168       -0.34515869616411        1.34184994156355
H           -4.49150451332299       -1.26588529201194       -0.11600113614498
H           -4.69747766208504        1.76649473526969        0.15599832762115
H           -5.06226165717665        0.84984998863784       -1.30484107765406
H           -6.86812693083136       -0.36083172025959       -0.10112571585510
H           -6.49568219433031        0.53722914964766        1.36955431231717
H           -7.07792286900528        2.67226801797777        0.21487931910600
H           -7.45014009844518        1.77545835620082       -1.25705405182404
H           -8.43449489019674        1.54435747457170        0.18901137087990
           -------------------------------------------------
          |                Final Singlepoint                |
           -------------------------------------------------

          ...................................................
          :                      SETUP                      :
          :.................................................:
          :  # basis functions                  86          :
          :  # atomic orbitals                  86          :
          :  # shells                           58          :
          :  # electrons                        86          :
          :  max. iterations                   250          :
          :  Hamiltonian                  GFN2-xTB          :
          :  restarted?                      false          :
          :  GBSA solvation                  false          :
          :  PC potential                    false          :
          :  electronic temp.          300.0000000     K    :
          :  accuracy                    1.0000000          :
          :  -> integral cutoff          0.2500000E+02      :
          :  -> integral neglect         0.1000000E-07      :
          :  -> SCF convergence          0.1000000E-05 Eh   :
          :  -> wf. convergence          0.1000000E-03 e    :
          :  Broyden damping             0.4000000          :
          ...................................................

 iter      E             dE          RMSdq      gap      omega  full diag
   1    -45.9857528 -0.459858E+02  0.316E-05   12.23       0.0  T
   2    -45.9857528 -0.781597E-12  0.181E-05   12.23     835.0  T
   3    -45.9857528 -0.184741E-12  0.229E-06   12.23    6577.9  T

   *** convergence criteria satisfied after 3 iterations ***

         #    Occupation            Energy/Eh            Energy/eV
      -------------------------------------------------------------
         1        2.0000           -0.6232918             -16.9606
       ...           ...                  ...                  ...
        37        2.0000           -0.4242478             -11.5444
        38        2.0000           -0.4209003             -11.4533
        39        2.0000           -0.4189410             -11.4000
        40        2.0000           -0.4173823             -11.3576
        41        2.0000           -0.4166310             -11.3371
        42        2.0000           -0.4115297             -11.1983
        43        2.0000           -0.4099475             -11.1552 (HOMO)
        44                          0.0395973               1.0775 (LUMO)
        45                          0.0546078               1.4860
        46                          0.0998009               2.7157
        47                          0.1044157               2.8413
        48                          0.1094510               2.9783
       ...                                ...                  ...
        86                          0.3271490               8.9022
      -------------------------------------------------------------
                  HL-Gap            0.4495448 Eh           12.2327 eV
             Fermi-level           -0.1851751 Eh           -5.0389 eV

 SCC (total)                   0 d,  0 h,  0 min,  0.012 sec
 SCC setup                      ...        0 min,  0.000 sec (  3.051%)
 Dispersion                     ...        0 min,  0.000 sec (  1.237%)
 classical contributions        ...        0 min,  0.000 sec (  0.313%)
 integral evaluation            ...        0 min,  0.003 sec ( 24.045%)
 iterations                     ...        0 min,  0.003 sec ( 26.592%)
 molecular gradient             ...        0 min,  0.005 sec ( 41.314%)
 printout                       ...        0 min,  0.000 sec (  3.142%)

         :::::::::::::::::::::::::::::::::::::::::::::::::::::
         ::                     SUMMARY                     ::
         :::::::::::::::::::::::::::::::::::::::::::::::::::::
         :: total energy             -45.308169510750 Eh    ::
         :: gradient norm              0.000226496568 Eh/a0 ::
         :: HOMO-LUMO gap             12.232737917894 eV    ::
         ::.................................................::
         :: SCC energy               -45.985752783843 Eh    ::
         :: -> isotropic ES            0.007581115336 Eh    ::
         :: -> anisotropic ES          0.014374171507 Eh    ::
         :: -> anisotropic XC          0.027396199563 Eh    ::
         :: -> dispersion             -0.028562255891 Eh    ::
         :: repulsion energy           0.677861569028 Eh    ::
         :: add. restraining           0.000000000000 Eh    ::
         :: total charge               0.000000000000 e     ::
         :::::::::::::::::::::::::::::::::::::::::::::::::::::

           ------------------------------------------------- 
          |                Numerical Hessian                |
           ------------------------------------------------- 
step length          :   0.00500
SCC accuracy         :   0.30000
Hessian scale factor :   1.00000
frozen atoms in %    :   0.00000    0
RMS gradient         :   0.00023
estimated CPU  time      0.41 min
estimated wall time      0.11 min

writing file <hessian>.

 projected vibrational frequencies (cm⁻¹)
eigval :       -0.00     0.00     0.00     0.00     0.00     0.00
eigval :       20.25    26.30    32.84    46.13    55.61    76.86
eigval :       85.72    91.75   113.32   121.87   134.62   136.99
eigval :      147.25   174.86   213.38   233.58   233.76   252.40
eigval :      296.57   304.83   394.97   428.76   450.35   477.97
eigval :      536.23   765.70   769.39   772.02   779.36   790.18
eigval :      819.60   834.79   881.55   905.57   936.64   941.05
eigval :      950.24   972.36   993.66  1017.45  1032.11  1052.34
eigval :     1056.29  1065.54  1093.28  1100.94  1102.64  1107.34
eigval :     1108.73  1114.88  1129.32  1130.92  1142.50  1175.54
eigval :     1204.09  1210.38  1229.74  1233.58  1245.92  1253.40
eigval :     1266.70  1270.48  1275.10  1279.29  1284.60  1288.63
eigval :     1293.06  1296.24  1298.53  1306.88  1316.56  1346.27
eigval :     1347.88  1370.81  1375.37  1378.15  1379.45  1380.76
eigval :     1416.19  1416.28  1491.30  1491.36  1495.66  1496.30
eigval :     1496.63  1497.85  1498.45  1500.04  1500.92  1502.23
eigval :     1503.57  1504.82  1504.89  1505.29  1508.00  1508.10
eigval :     2952.66  2953.32  2954.81  2956.08  2956.29  2959.69
eigval :     2960.18  2965.88  2968.24  2970.91  2972.27  2972.91
eigval :     2973.30  2974.13  2975.06  2975.86  2977.86  2978.26
eigval :     2979.74  2983.27  2984.33  2986.83  2990.93  2996.95
eigval :     3029.69  3029.95  3032.32  3032.40  3037.97  3038.04
           -------------------------------------------------
          |                Property Printout                |
           -------------------------------------------------

    * Orbital Energies and Occupations

         #    Occupation            Energy/Eh            Energy/eV
      -------------------------------------------------------------
         1        2.0000           -0.6232918             -16.9606
       ...           ...                  ...                  ...
        31        2.0000           -0.4436751             -12.0730
        32        2.0000           -0.4368472             -11.8872
        33        2.0000           -0.4354957             -11.8504
        34        2.0000           -0.4336090             -11.7991
        35        2.0000           -0.4294037             -11.6847
        36        2.0000           -0.4269807             -11.6187
        37        2.0000           -0.4242478             -11.5444
        38        2.0000           -0.4209003             -11.4533
        39        2.0000           -0.4189410             -11.4000
        40        2.0000           -0.4173823             -11.3576
        41        2.0000           -0.4166310             -11.3371
        42        2.0000           -0.4115297             -11.1983
        43        2.0000           -0.4099475             -11.1552 (HOMO)
        44                          0.0395973               1.0775 (LUMO)
        45                          0.0546078               1.4860
        46                          0.0998009               2.7157
        47                          0.1044157               2.8413
        48                          0.1094510               2.9783
        49                          0.1125570               3.0628
        50                          0.1175942               3.1999
        51                          0.1194577               3.2506
        52                          0.1249504               3.4001
        53                          0.1332098               3.6248
        54                          0.1342562               3.6533
       ...                                ...                  ...
        86                          0.3271490               8.9022
      -------------------------------------------------------------
                  HL-Gap            0.4495448 Eh           12.2327 eV
             Fermi-level           -0.1851751 Eh           -5.0389 eV

     #   Z          covCN         q      C6AA      α(0)
     1   6 C        3.752    -0.102    22.509     6.766
     2   6 C        3.801    -0.053    21.523     6.605
     3   6 C        3.803    -0.059    21.631     6.621
     4   6 C        3.803    -0.058    21.624     6.620
     5   6 C        3.803    -0.059    21.629     6.621
     6   6 C        3.802    -0.058    21.617     6.619
     7   6 C        3.802    -0.058    21.617     6.619
     8   6 C        3.803    -0.059    21.632     6.622
     9   6 C        3.803    -0.058    21.622     6.620
    10   6 C        3.803    -0.058    21.616     6.619
    11   6 C        3.803    -0.058    21.622     6.620
    12   6 C        3.803    -0.059    21.633     6.622
    13   6 C        3.801    -0.053    21.523     6.605
    14   6 C        3.752    -0.102    22.510     6.766
    15   1 H        0.925     0.033     2.542     2.493
    16   1 H        0.925     0.032     2.551     2.498
    17   1 H        0.925     0.033     2.542     2.494
    18   1 H        0.924     0.028     2.611     2.527
    19   1 H        0.924     0.028     2.609     2.526
    20   1 H        0.924     0.030     2.593     2.518
    21   1 H        0.924     0.030     2.593     2.518
    22   1 H        0.924     0.028     2.621     2.532
    23   1 H        0.924     0.028     2.615     2.529
    24   1 H        0.924     0.032     2.565     2.505
    25   1 H        0.924     0.029     2.595     2.519
    26   1 H        0.924     0.028     2.609     2.526
    27   1 H        0.924     0.029     2.595     2.519
    28   1 H        0.924     0.029     2.594     2.519
    29   1 H        0.924     0.028     2.609     2.526
    30   1 H        0.924     0.029     2.595     2.519
    31   1 H        0.924     0.032     2.563     2.504
    32   1 H        0.924     0.029     2.607     2.525
    33   1 H        0.924     0.028     2.615     2.529
    34   1 H        0.924     0.029     2.602     2.523
    35   1 H        0.924     0.029     2.602     2.523
    36   1 H        0.924     0.029     2.608     2.525
    37   1 H        0.924     0.028     2.610     2.526
    38   1 H        0.924     0.030     2.590     2.517
    39   1 H        0.924     0.030     2.592     2.518
    40   1 H        0.924     0.028     2.609     2.526
    41   1 H        0.924     0.028     2.608     2.525
    42   1 H        0.925     0.033     2.542     2.493
    43   1 H        0.925     0.033     2.542     2.493
    44   1 H        0.925     0.033     2.550     2.497

 Mol. C6AA /au·bohr⁶  :      12851.854041
 Mol. C8AA /au·bohr⁸  :     268455.909383
 Mol. α(0) /au        :        168.437072


Wiberg/Mayer (AO) data.
largest (>0.10) Wiberg bond orders for each atom

 ---------------------------------------------------------------------------
     #   Z sym  total        # sym  WBO       # sym  WBO       # sym  WBO
 ---------------------------------------------------------------------------
     1   6 C    3.997 --     2 C    1.019    17 H    0.988    15 H    0.988
                            16 H    0.988
     2   6 C    3.998 --     1 C    1.019     3 C    1.008    18 H    0.979
                            19 H    0.979
     3   6 C    3.997 --     2 C    1.008     4 C    1.007    20 H    0.978
                            21 H    0.977
     4   6 C    3.997 --     3 C    1.007     5 C    1.007    23 H    0.978
                            22 H    0.978
     5   6 C    3.997 --     6 C    1.008     4 C    1.007    25 H    0.977
                            24 H    0.975
     6   6 C    3.997 --     5 C    1.008     7 C    1.006    27 H    0.977
                            26 H    0.977
     7   6 C    3.997 --     8 C    1.008     6 C    1.006    28 H    0.977
                            29 H    0.977
     8   6 C    3.997 --     7 C    1.008     9 C    1.007    30 H    0.977
                            31 H    0.975
     9   6 C    3.997 --    10 C    1.007     8 C    1.007    33 H    0.978
                            32 H    0.978
    10   6 C    3.997 --    11 C    1.007     9 C    1.007    35 H    0.978
                            34 H    0.977
    11   6 C    3.997 --    12 C    1.007    10 C    1.007    37 H    0.978
                            36 H    0.977
    12   6 C    3.997 --    13 C    1.008    11 C    1.007    39 H    0.978
                            38 H    0.977
    13   6 C    3.998 --    14 C    1.019    12 C    1.008    40 H    0.979
                            41 H    0.979
    14   6 C    3.997 --    13 C    1.019    43 H    0.988    42 H    0.988
                            44 H    0.988
    15   1 H    0.999 --     1 C    0.988
    16   1 H    0.999 --     1 C    0.988
    17   1 H    0.999 --     1 C    0.988
    18   1 H    0.999 --     2 C    0.979
    19   1 H    0.999 --     2 C    0.979
    20   1 H    0.999 --     3 C    0.978
    21   1 H    0.999 --     3 C    0.977
    22   1 H    0.999 --     4 C    0.978
    23   1 H    0.999 --     4 C    0.978
    24   1 H    0.999 --     5 C    0.975
    25   1 H    0.999 --     5 C    0.977
    26   1 H    0.999 --     6 C    0.977
    27   1 H    0.999 --     6 C    0.977
    28   1 H    0.999 --     7 C    0.977
    29   1 H    0.999 --     7 C    0.977
    30   1 H    0.999 --     8 C    0.977
    31   1 H    0.999 --     8 C    0.975
    32   1 H    0.999 --     9 C    0.978
    33   1 H    0.999 --     9 C    0.978
    34   1 H    0.999 --    10 C    0.977
    35   1 H    0.999 --    10 C    0.978
    36   1 H    0.999 --    11 C    0.977
    37   1 H    0.999 --    11 C    0.978
    38   1 H    0.999 --    12 C    0.977
    39   1 H    0.999 --    12 C    0.978
    40   1 H    0.999 --    13 C    0.979
    41   1 H    0.999 --    13 C    0.979
    42   1 H    0.999 --    14 C    0.988
    43   1 H    0.999 --    14 C    0.988
    44   1 H    0.999 --    14 C    0.988
 ---------------------------------------------------------------------------

Topologies differ in total number of bonds
Writing topology from bond orders to xtbtopo.mol

molecular dipole:
                 x           y           z       tot (Debye)
 q only:       -0.002       0.025       0.001
   full:       -0.002       0.019       0.000       0.049
molecular quadrupole (traceless):
                xx          xy          yy          xz          yz          zz
 q only:        0.447      -0.015       0.055      -0.016      -0.060      -0.502
  q+dip:       -2.836       0.035       0.022       0.720       0.329       2.813
   full:       -1.222       0.017       0.008       0.374       0.151       1.214

           -------------------------------------------------
          |                Geometry Summary                 |
           -------------------------------------------------

      molecular mass/u    :      198.3885251
   center of mass at/Å    :       -0.0002053       0.0010221       0.0000403
  moments of inertia/u·Å² :        0.3600945E+03   0.4281327E+04   0.4571469E+04
rotational constants/cm⁻¹ :        0.4681447E-01   0.3937478E-02   0.3687575E-02

 * 43 selected distances

     #   Z          #   Z                                           value/Å
     1   6 C        2   6 C                                       1.5238409
     2   6 C        3   6 C                                       1.5264875
     3   6 C        4   6 C                                       1.5267538
     4   6 C        5   6 C                                       1.5268341
     5   6 C        6   6 C                                       1.5270649
     6   6 C        7   6 C                                       1.5293685 (max)
     7   6 C        8   6 C                                       1.5269386
     8   6 C        9   6 C                                       1.5267931
     9   6 C       10   6 C                                       1.5267417
    10   6 C       11   6 C                                       1.5263952
    11   6 C       12   6 C                                       1.5266873
    12   6 C       13   6 C                                       1.5265569
    13   6 C       14   6 C                                       1.5237751
     1   6 C       15   1 H                                       1.0879700
     1   6 C       16   1 H                                       1.0875571 (min)
     1   6 C       17   1 H                                       1.0879849
     2   6 C       18   1 H                                       1.0924690
     2   6 C       19   1 H                                       1.0925299
     3   6 C       20   1 H                                       1.0927859
     3   6 C       21   1 H                                       1.0928531
     4   6 C       22   1 H                                       1.0927666
     4   6 C       23   1 H                                       1.0928050
     5   6 C       24   1 H                                       1.0912043
     5   6 C       25   1 H                                       1.0927308
     6   6 C       26   1 H                                       1.0930729
     6   6 C       27   1 H                                       1.0926769
     7   6 C       28   1 H                                       1.0926884
     7   6 C       29   1 H                                       1.0930578
     8   6 C       30   1 H                                       1.0926972
     8   6 C       31   1 H                                       1.0911790
     9   6 C       32   1 H                                       1.0927495
     9   6 C       33   1 H                                       1.0926603
    10   6 C       34   1 H                                       1.0928538
    10   6 C       35   1 H                                       1.0927105
    11   6 C       36   1 H                                       1.0927815
    11   6 C       37   1 H                                       1.0926856
    12   6 C       38   1 H                                       1.0928069
    12   6 C       39   1 H                                       1.0927484
    13   6 C       40   1 H                                       1.0924805
    13   6 C       41   1 H                                       1.0925428
    14   6 C       42   1 H                                       1.0879722
    14   6 C       43   1 H                                       1.0879469
    14   6 C       44   1 H                                       1.0875693

 * 2 distinct bonds (by element types)

   Z      Z             #   av. dist./Å        max./Å        min./Å
   1 H    6 C          30     1.0916512     1.0930729     1.0875571
   6 C    6 C          13     1.5264798     1.5293685     1.5237751

           -------------------------------------------------
          |               Frequency Printout                |
           -------------------------------------------------
 projected vibrational frequencies (cm⁻¹)
eigval :       -0.00     0.00     0.00     0.00     0.00     0.00
eigval :       20.25    26.30    32.84    46.13    55.61    76.86
eigval :       85.72    91.75   113.32   121.87   134.62   136.99
eigval :      147.25   174.86   213.38   233.58   233.76   252.40
eigval :      296.57   304.83   394.97   428.76   450.35   477.97
eigval :      536.23   765.70   769.39   772.02   779.36   790.18
eigval :      819.60   834.79   881.55   905.57   936.64   941.05
eigval :      950.24   972.36   993.66  1017.45  1032.11  1052.34
eigval :     1056.29  1065.54  1093.28  1100.94  1102.64  1107.34
eigval :     1108.73  1114.88  1129.32  1130.92  1142.50  1175.54
eigval :     1204.09  1210.38  1229.74  1233.58  1245.92  1253.40
eigval :     1266.70  1270.48  1275.10  1279.29  1284.60  1288.63
eigval :     1293.06  1296.24  1298.53  1306.88  1316.56  1346.27
eigval :     1347.88  1370.81  1375.37  1378.15  1379.45  1380.76
eigval :     1416.19  1416.28  1491.30  1491.36  1495.66  1496.30
eigval :     1496.63  1497.85  1498.45  1500.04  1500.92  1502.23
eigval :     1503.57  1504.82  1504.89  1505.29  1508.00  1508.10
eigval :     2952.66  2953.32  2954.81  2956.08  2956.29  2959.69
eigval :     2960.18  2965.88  2968.24  2970.91  2972.27  2972.91
eigval :     2973.30  2974.13  2975.06  2975.86  2977.86  2978.26
eigval :     2979.74  2983.27  2984.33  2986.83  2990.93  2996.95
eigval :     3029.69  3029.95  3032.32  3032.40  3037.97  3038.04
 reduced masses (amu)
   1: 10.29   2:  9.97   3: 10.19   4: 10.04   5:  9.51   6: 10.04   7:  9.55   8:  5.94
   9:  5.66  10:  8.84  11:  9.19  12:  7.32  13:  7.26  14:  8.36  15:  6.37  16:  8.10
  17:  7.63  18:  7.14  19:  7.44  20:  9.28  21:  8.20  22:  2.18  23:  2.24  24:  8.30
  25:  9.03  26:  9.70  27:  9.25  28:  8.72  29:  9.21  30:  9.23  31:  8.73  32:  1.88
  33:  1.63  34:  1.78  35:  2.11  36:  2.24  37:  2.85  38:  2.80  39:  3.28  40:  3.60
  41:  6.15  42:  6.04  43:  3.78  44:  5.66  45:  3.92  46:  3.09  47:  3.43  48: 10.62
  49:  8.90  50:  9.99  51:  8.64  52:  8.93  53:  7.82  54:  7.71  55:  7.91  56:  7.94
  57:  7.28  58:  8.05  59:  8.69  60:  6.75  61:  6.33  62:  5.62  63:  4.07  64:  4.29
  65:  3.68  66:  3.91  67:  3.22  68:  2.64  69:  1.87  70:  2.08  71:  2.41  72:  2.59
  73:  2.27  74:  2.18  75:  2.51  76:  3.13  77:  3.43  78:  4.11  79:  4.26  80:  4.74
  81:  5.00  82:  5.73  83:  5.71  84:  5.50  85:  3.19  86:  3.18  87:  1.92  88:  1.91
  89:  1.93  90:  1.92  91:  1.92  92:  1.92  93:  1.94  94:  1.91  95:  2.00  96:  2.03
  97:  1.81  98:  1.54  99:  1.54 100:  1.75 101:  1.65 102:  1.65 103:  1.89 104:  1.90
 105:  1.91 106:  1.91 107:  1.92 108:  1.97 109:  1.96 110:  1.96 111:  1.86 112:  1.72
 113:  1.49 114:  1.54 115:  1.55 116:  1.63 117:  1.54 118:  1.64 119:  1.68 120:  1.66
 121:  1.58 122:  1.61 123:  1.86 124:  1.55 125:  1.54 126:  1.63 127:  1.96 128:  1.96
 129:  1.91 130:  1.92 131:  1.28 132:  1.28
 IR intensities (km·mol⁻¹)
   1:  0.00   2:  0.00   3:  0.00   4:  0.00   5:  0.00   6:  0.00   7:  0.00   8:  0.00
   9:  0.00  10:  0.00  11:  0.01  12:  0.02  13:  0.02  14:  0.02  15:  0.00  16:  0.03
  17:  0.01  18:  0.00  19:  0.01  20:  0.01  21:  0.00  22:  0.00  23:  0.00  24:  0.02
  25:  0.21  26:  0.04  27:  0.02  28:  0.43  29:  0.02  30:  0.05  31:  0.42  32: 15.43
  33:  9.08  34:  5.72  35:  0.25  36:  2.64  37:  1.41  38:  1.54  39:  1.39  40:  0.54
  41:  3.73  42:  2.28  43:  0.54  44:  0.76  45:  0.52  46:  0.22  47:  0.43  48:  0.05
  49:  0.08  50:  0.75  51:  2.06  52:  1.77  53:  1.52  54:  0.14  55:  0.50  56:  1.23
  57:  0.46  58:  0.23  59:  2.74  60:  0.65  61:  0.32  62:  0.47  63:  0.34  64:  0.06
  65:  0.16  66:  0.01  67:  0.10  68:  0.59  69:  0.04  70:  0.02  71:  0.25  72:  0.27
  73:  0.10  74:  0.08  75:  0.16  76:  0.13  77:  0.68  78:  0.25  79:  0.90  80:  1.48
  81:  0.23  82:  1.17  83:  0.16  84:  0.05  85:  0.86  86:  0.80  87:  0.06  88:  0.36
  89:  0.07  90:  0.02  91:  0.03  92:  0.26  93:  0.02  94:  0.14  95:  0.20  96:  0.31
  97:  0.04  98:  2.49  99:  1.89 100:  0.32 101:  0.40 102:  1.92 103:  0.04 104:  0.47
 105:  1.15 106:  9.27 107:  9.48 108:  0.26 109:  1.37 110:  2.51 111:  1.51 112:  1.25
 113:  3.18 114: 10.09 115:  1.98 116: 28.98 117: 14.10 118: 45.45 119: 28.72 120: 74.07
 121:  6.91 122: 46.59 123:272.75 124: 62.42 125:198.22 126:216.53 127: 61.71 128: 61.96
 129: 76.05 130: 48.57 131: 39.36 132: 26.58
 Raman intensities (amu)
   1:  0.00   2:  0.00   3:  0.00   4:  0.00   5:  0.00   6:  0.00   7:  0.00   8:  0.00
   9:  0.00  10:  0.00  11:  0.00  12:  0.00  13:  0.00  14:  0.00  15:  0.00  16:  0.00
  17:  0.00  18:  0.00  19:  0.00  20:  0.00  21:  0.00  22:  0.00  23:  0.00  24:  0.00
  25:  0.00  26:  0.00  27:  0.00  28:  0.00  29:  0.00  30:  0.00  31:  0.00  32:  0.00
  33:  0.00  34:  0.00  35:  0.00  36:  0.00  37:  0.00  38:  0.00  39:  0.00  40:  0.00
  41:  0.00  42:  0.00  43:  0.00  44:  0.00  45:  0.00  46:  0.00  47:  0.00  48:  0.00
  49:  0.00  50:  0.00  51:  0.00  52:  0.00  53:  0.00  54:  0.00  55:  0.00  56:  0.00
  57:  0.00  58:  0.00  59:  0.00  60:  0.00  61:  0.00  62:  0.00  63:  0.00  64:  0.00
  65:  0.00  66:  0.00  67:  0.00  68:  0.00  69:  0.00  70:  0.00  71:  0.00  72:  0.00
  73:  0.00  74:  0.00  75:  0.00  76:  0.00  77:  0.00  78:  0.00  79:  0.00  80:  0.00
  81:  0.00  82:  0.00  83:  0.00  84:  0.00  85:  0.00  86:  0.00  87:  0.00  88:  0.00
  89:  0.00  90:  0.00  91:  0.00  92:  0.00  93:  0.00  94:  0.00  95:  0.00  96:  0.00
  97:  0.00  98:  0.00  99:  0.00 100:  0.00 101:  0.00 102:  0.00 103:  0.00 104:  0.00
 105:  0.00 106:  0.00 107:  0.00 108:  0.00 109:  0.00 110:  0.00 111:  0.00 112:  0.00
 113:  0.00 114:  0.00 115:  0.00 116:  0.00 117:  0.00 118:  0.00 119:  0.00 120:  0.00
 121:  0.00 122:  0.00 123:  0.00 124:  0.00 125:  0.00 126:  0.00 127:  0.00 128:  0.00
 129:  0.00 130:  0.00 131:  0.00 132:  0.00
 output can be read by thermo (or use thermo option).
 writing <g98.out> molden fake output.
 recommended (thermochemical) frequency scaling factor: 1.0
           -------------------------------------------------
          |             Thermodynamic Functions             |
           -------------------------------------------------

Molecule has no symmetry elements
It seems to be the C1 point group
c1  symmetry found (for desy threshold:  0.10E+00) used in thermo

          ...................................................
          :                      SETUP                      :
          :.................................................:
          :  # frequencies                         126      :
          :  # imaginary freq.                       0      :
          :  linear?                             false      :
          :  only rotor calc.                    false      :
          :  symmetry                               c1      :
          :  rotational number                       1      :
          :  scaling factor                  1.0000000      :
          :  rotor cutoff                   50.0000000 cm⁻¹ :
          :  imag. cutoff                  -20.0000000 cm⁻¹ :
          :.................................................:

    mode    ω/cm⁻¹     T·S(HO)/kcal·mol⁻¹    T·S(FR)/kcal·mol⁻¹   T·S(vib)
   ------------------------------------------------------------------------
       1     20.25    -1.97071 (  2.62%)    -1.32427 ( 97.38%)    -1.34120
       2     26.30    -1.81585 (  7.11%)    -1.24678 ( 92.89%)    -1.28726
       3     32.84    -1.68453 ( 15.69%)    -1.18102 ( 84.31%)    -1.26003
       4     46.13    -1.48387 ( 42.00%)    -1.08041 ( 58.00%)    -1.24988
       5     55.61    -1.37367 ( 60.47%)    -1.02503 ( 39.53%)    -1.23586
       6     76.86    -1.18347 ( 84.81%)    -0.92914 ( 15.19%)    -1.14485
       7     85.72    -1.11968 ( 89.63%)    -0.89684 ( 10.37%)    -1.09657
       8     91.75    -1.08002 ( 91.90%)    -0.87670 (  8.10%)    -1.06354
       9    113.32    -0.95743 ( 96.35%)    -0.81416 (  3.65%)    -0.95220
      10    121.87    -0.91545 ( 97.25%)    -0.79260 (  2.75%)    -0.91206
      11    134.62    -0.85837 ( 98.13%)    -0.76314 (  1.87%)    -0.85659
      12    136.99    -0.84838 ( 98.26%)    -0.75796 (  1.74%)    -0.84680
      13    147.25    -0.80723 ( 98.69%)    -0.73657 (  1.31%)    -0.80631
      14    174.86    -0.71038 ( 99.34%)    -0.68566 (  0.66%)    -0.71021
      15    213.38    -0.60065 ( 99.70%)    -0.62668 (  0.30%)    -0.60073
      16    233.58    -0.55195 ( 99.79%)    -0.59988 (  0.21%)    -0.55205
      17    233.76    -0.55155 ( 99.79%)    -0.59966 (  0.21%)    -0.55165
      18    252.40    -0.51095 ( 99.85%)    -0.57693 (  0.15%)    -0.51105
      19    296.57    -0.42819 ( 99.92%)    -0.52915 (  0.08%)    -0.42828
   ------------------------------------------------------------------------

   temp. (K)  partition function   enthalpy   heat capacity  entropy
                                   cal/mol     cal/K/mol   cal/K/mol   J/K/mol
 298.15  VIB  0.606E+09            10316.509     57.517     67.929
         ROT  0.641E+07              888.752      2.981     34.129
         INT  0.388E+16            11205.262     60.498    102.058
         TR   0.270E+28             1481.254      4.968     41.741
         TOT                       12686.5157    65.4660   143.7987   601.6537

       T/K    H(0)-H(T)+PV         H(T)/Eh          T*S/Eh         G(T)/Eh
   ------------------------------------------------------------------------
    298.15    0.202172E-01    0.432837E+00    0.683234E-01    0.364513E+00
   ------------------------------------------------------------------------

         :::::::::::::::::::::::::::::::::::::::::::::::::::::
         ::                  THERMODYNAMIC                  ::
         :::::::::::::::::::::::::::::::::::::::::::::::::::::
         :: total free energy         -44.943656261324 Eh   ::
         ::.................................................::
         :: total energy              -45.308169510750 Eh   ::
         :: zero point energy           0.412619393734 Eh   ::
         :: G(RRHO) w/o ZPVE           -0.048106144307 Eh   ::
         :: G(RRHO) contrib.            0.364513249427 Eh   ::
         :::::::::::::::::::::::::::::::::::::::::::::::::::::
 
 normal mode %tage of torsion character
   1:  0.00   2:  0.00   3:  0.00   4:  0.00   5:  0.00   6:  0.00   7:  0.34   8:  0.55
   9:  0.66  10:  0.46  11:  0.35  12:  0.53  13:  0.58  14:  0.48  15:  0.71  16:  0.53
  17:  0.63  18:  0.68  19:  0.68  20:  0.36  21:  0.57  22:  0.88  23:  0.89  24:  0.40
  25:  0.19  26:  0.08  27:  0.10  28:  0.11  29:  0.07  30:  0.05  31:  0.06  32:  0.52
  33:  0.57  34:  0.51  35:  0.46  36:  0.47  37:  0.53  38:  0.52  39:  0.57  40:  0.50
  41:  0.23  42:  0.09  43:  0.47  44:  0.36  45:  0.38  46:  0.40  47:  0.19  48:  0.07
  49:  0.10  50:  0.06  51:  0.08  52:  0.04  53:  0.07  54:  0.05  55:  0.07  56:  0.06
  57:  0.10  58:  0.03  59:  0.09  60:  0.44  61:  0.59  62:  0.51  63:  0.35  64:  0.38
  65:  0.18  66:  0.30  67:  0.23  68:  0.17  69:  0.16  70:  0.12  71:  0.18  72:  0.15
  73:  0.11  74:  0.11  75:  0.10  76:  0.06  77:  0.07  78:  0.07  79:  0.07  80:  0.06
  81:  0.06  82:  0.06  83:  0.05  84:  0.06  85:  0.00  86:  0.00  87:  0.62  88:  0.64
  89:  0.64  90:  0.63  91:  0.66  92:  0.63  93:  0.62  94:  0.63  95:  0.61  96:  0.62
  97:  0.59  98:  0.93  99:  0.91 100:  0.59 101:  0.82 102:  0.87 103:  0.35 104:  0.40
 105:  0.33 106:  0.30 107:  0.29 108:  0.29 109:  0.27 110:  0.10 111:  0.11 112:  0.02
 113:  0.01 114:  0.01 115:  0.01 116:  0.02 117:  0.01 118:  0.01 119:  0.01 120:  0.01
 121:  0.01 122:  0.01 123:  0.01 124:  0.01 125:  0.01 126:  0.03 127:  0.08 128:  0.05
 129:  0.03 130:  0.03 131:  0.00 132:  0.00
 recommended # of modes for mode following           4

optimized geometry written to: xtbopt.xyz


           -------------------------------------------------
          | TOTAL ENERGY              -45.308169510750 Eh   |
          | TOTAL ENTHALPY            -44.875332867297 Eh   |
          | TOTAL FREE ENERGY         -44.943656261324 Eh   |
          | GRADIENT NORM               0.000226495338 Eh/α |
          | HOMO-LUMO GAP              12.232737866515 eV   |
           -------------------------------------------------

------------------------------------------------------------------------
 * finished run on 2024/04/23 at 12:10:41.006     
------------------------------------------------------------------------
 total:
 * wall-time:     0 d,  0 h,  0 min,  1.917 sec
 *  cpu-time:     0 d,  0 h,  0 min,  7.314 sec
 * ratio c/w:     3.815 speedup
 SCF:
 * wall-time:     0 d,  0 h,  0 min,  0.039 sec
 *  cpu-time:     0 d,  0 h,  0 min,  0.130 sec
 * ratio c/w:     3.373 speedup
 ANC optimizer:
 * wall-time:     0 d,  0 h,  0 min,  0.133 sec
 *  cpu-time:     0 d,  0 h,  0 min,  0.501 sec
 * ratio c/w:     3.755 speedup
 analytical hessian:
 * wall-time:     0 d,  0 h,  0 min,  1.671 sec
 *  cpu-time:     0 d,  0 h,  0 min,  6.485 sec
 * ratio c/w:     3.882 speedup

