44
 energy: -45.305271657120 gnorm: 0.033367473749 xtb: 6.6.1 (8d0f1dd)
C            7.00096200000000        2.24266200000000        0.21134900000000
C            6.34514800000000        0.94926300000000       -0.24635800000000
C            4.89135000000000        0.82878500000000        0.21226500000000
C            4.21804200000000       -0.45926300000000       -0.26130000000000
C            2.77068400000000       -0.58397400000000        0.21495700000000
C            2.08815600000000       -1.86130600000000       -0.27586900000000
C            0.66034100000000       -2.03358700000000        0.25030900000000
C           -0.30809400000000       -0.96003600000000       -0.24713900000000
C           -1.74133900000000       -1.17613000000000        0.23869800000000
C           -2.70102900000000       -0.08789300000000       -0.24148200000000
C           -4.13451500000000       -0.29379700000000        0.24754200000000
C           -5.08438200000000        0.81226200000000       -0.21181400000000
C           -6.52058700000000        0.60986600000000        0.27332500000000
C           -7.45264100000000        1.72756500000000       -0.16794400000000
H            6.99145300000000        2.32637700000000        1.30014800000000
H            8.04173900000000        2.31405900000000       -0.11440100000000
H            6.47350500000000        3.11424500000000       -0.18219200000000
H            6.91424800000000        0.08501200000000        0.12182700000000
H            6.38790100000000        0.87046000000000       -1.34103100000000
H            4.84418700000000        0.88843300000000        1.30669800000000
H            4.31992600000000        1.69499800000000       -0.14377900000000
H            4.79593000000000       -1.32595500000000        0.08290100000000
H            4.25178500000000       -0.51182100000000       -1.35665800000000
H            2.20431800000000        0.29460500000000       -0.11600100000000
H            2.73917500000000       -0.54733900000000        1.31102600000000
H            2.70047000000000       -2.72623300000000        0.01207100000000
H            2.07871900000000       -1.87066100000000       -1.37292000000000
H            0.67139900000000       -2.03378900000000        1.34743200000000
H            0.27330000000000       -3.02186600000000       -0.03185300000000
H           -0.29148800000000       -0.92812900000000       -1.34371100000000
H            0.03554700000000        0.03109100000000        0.07205700000000
H           -1.75574100000000       -1.22242400000000        1.33482600000000
H           -2.10056900000000       -2.15853000000000       -0.09232200000000
H           -2.33767600000000        0.89354400000000        0.08812800000000
H           -2.68797600000000       -0.04184000000000       -1.33764300000000
H           -4.14470400000000       -0.35665900000000        1.34283200000000
H           -4.50613200000000       -1.26705600000000       -0.09655300000000
H           -4.71217200000000        1.78402300000000        0.13597100000000
H           -5.07092000000000        0.87892400000000       -1.30685000000000
H           -6.89260100000000       -0.35870700000000       -0.08736600000000
H           -6.52465900000000        0.52440900000000        1.36848000000000
H           -7.11592500000000        2.69514400000000        0.21037000000000
H           -7.49051100000000        1.80418100000000       -1.25668000000000
H           -8.47502500000000        1.57475800000000        0.18644200000000
44
 energy: -45.307666711524 gnorm: 0.015199485892 xtb: 6.6.1 (8d0f1dd)
C            6.99123432324689        2.23798469001916        0.21267061707083
C            6.33912574751642        0.94288460788725       -0.24767403298261
C            4.88679772366163        0.82771560422162        0.21379350354954
C            4.21814232302385       -0.46162032518058       -0.26151029376388
C            2.77134742589818       -0.57787151606596        0.21671946816896
C            2.08518731392649       -1.85107776950751       -0.27790221571996
C            0.65950885208213       -2.02281765686798        0.25225153462470
C           -0.31174168291533       -0.95404077854031       -0.24880369744531
C           -1.74289001687441       -1.17741931409068        0.23921747363202
C           -2.70027320093392       -0.08726782811061       -0.24212987466306
C           -4.13275769756675       -0.29571469889431        0.24825457572745
C           -5.07859278126187        0.81248622977441       -0.21324668993250
C           -6.51231694369803        0.60530975083015        0.27436983533044
C           -7.44176156543079        1.72502133536236       -0.16943294381750
H            6.98274425862061        2.31277680505628        1.29996885678517
H            8.02758775283623        2.29542192126444       -0.11949881233461
H            6.46252256274584        3.10322386414233       -0.18701596300649
H            6.90889374910522        0.08935346162881        0.13579742126157
H            6.37722733900940        0.88234558458356       -1.34090794062982
H            4.85076818579886        0.87401364041491        1.30746500805201
H            4.32097466030495        1.68873416989909       -0.15795929939928
H            4.79182974119673       -1.32273078434002        0.09778830490382
H            4.24258162855593       -0.50001214885166       -1.35589262302353
H            2.21293419197239        0.29612221136398       -0.13054531099033
H            2.74837920012729       -0.55735992800806        1.31153735428028
H            2.68562619193279       -2.71541434516446        0.02769631323558
H            2.06799050570137       -1.85237342475702       -1.37296040131397
H            0.67645473380395       -2.01339784132226        1.34729617933737
H            0.28415913731508       -3.00783565555903       -0.04746432916943
H           -0.29928087674689       -0.93992005991463       -1.34389327234481
H            0.02580059799113        0.03080182903879        0.08653157012089
H           -1.75089925341245       -1.20827538266075        1.33405177356870
H           -2.09871794667376       -2.15370474695411       -0.10695611407164
H           -2.33965593080658        0.88780358752904        0.10287245710732
H           -2.69332824135915       -0.05663383785128       -1.33693976958325
H           -4.13776479666134       -0.34277336226083        1.34252144481298
H           -4.50275063891420       -1.26195016924807       -0.11097836975543
H           -4.71055128054392        1.77794881497966        0.15016323818498
H           -5.07311971077489        0.86351946728737       -1.30727865880855
H           -6.88765879634548       -0.35292044478432       -0.10139009970246
H           -6.51621557068529        0.53874302347903        1.36795463791577
H           -7.10279076194108        2.68684529854208        0.21518039599215
H           -7.47828623435406        1.79279191664450       -1.25659547171331
H           -8.45686521847322        1.55895520498562        0.19066222050920
44
 energy: -45.308085878926 gnorm: 0.002314219742 xtb: 6.6.1 (8d0f1dd)
C            6.98473039339595        2.23406917656472        0.21332212193645
C            6.33407743457506        0.93653684305081       -0.24895328066280
C            4.88289969988536        0.82548759356467        0.21475406747250
C            4.21614704459933       -0.46412451030127       -0.26157609991945
C            2.76937638160055       -0.57101156145490        0.21830498145566
C            2.08208551014995       -1.84232067795741       -0.27885029727810
C            0.65696296334848       -2.01371422495511        0.25321062994180
C           -0.31452794422353       -0.94637386332792       -0.25037702007621
C           -1.74372117439811       -1.17833377201251        0.23973315063671
C           -2.69865538822325       -0.08648792450847       -0.24329956976441
C           -4.12978176026206       -0.29885286724433        0.24928083297129
C           -5.07221819319286        0.81131842956875       -0.21409924449511
C           -6.50406566203241        0.60047447110895        0.27554739742938
C           -7.43317680212971        1.72243790254225       -0.17042490233521
H            6.97465257028227        2.30318622090331        1.29926140804518
H            8.01845219383514        2.28453675127350       -0.12235081682453
H            6.45317820330325        3.09454084755620       -0.18818902580013
H            6.90285252270319        0.08864694935376        0.14080077749488
H            6.36902110364222        0.88449085764035       -1.34006915847079
H            4.85199256707621        0.86605394576996        1.30666384806455
H            4.32029576130914        1.68301168154905       -0.16358206810321
H            4.78645208570144       -1.32177754925974        0.10487858303453
H            4.23690123238533       -0.49670345961351       -1.35406402081067
H            2.21876959727424        0.30256578948018       -0.13501875002833
H            2.75135362203207       -0.55888388827594        1.31118011899720
H            2.67506692129845       -2.70658533121815        0.03377563156016
H            2.06042839682811       -1.83782519379896       -1.37167590766276
H            0.67746277197678       -1.99748721321883        1.34596952481365
H            0.28884268453561       -2.99690715846074       -0.05339182687918
H           -0.30459100407235       -0.94181316669593       -1.34341470832383
H            0.01647534584592        0.03603336159731        0.09092987799358
H           -1.74896781485761       -1.20265383115301        1.33259957526507
H           -2.09700305405779       -2.15056920445794       -0.11366141093209
H           -2.33989614293661        0.88434206703772        0.10878175169395
H           -2.69468404647635       -0.06269844960836       -1.33613521954369
H           -4.13259439056037       -0.33844026105537        1.34172959091323
H           -4.49889837281549       -1.26048159529668       -0.11655764838228
H           -4.70643870789935        1.77272555431431        0.15580990331901
H           -5.07040029416199        0.85537483925645       -1.30628408994458
H           -6.87975519047225       -0.35205414816827       -0.10644150391711
H           -6.50717202806550        0.54301392887198        1.36696602260189
H           -7.09152079984143        2.68043572436621        0.21645543659399
H           -7.46659163913240        1.78536141715794       -1.25625257223225
H           -8.44421759777260        1.54912649951499        0.19250191015204
44
 energy: -45.308125359583 gnorm: 0.001436479655 xtb: 6.6.1 (8d0f1dd)
C            6.98272031104092        2.23186794709751        0.21325652527592
C            6.33226044829156        0.93358414772847       -0.24968245973372
C            4.88155457504187        0.82432799821578        0.21501133822927
C            4.21443227738833       -0.46495460300410       -0.26108273197027
C            2.76775659923861       -0.56804763895332        0.21926759586067
C            2.08029391877624       -1.83831228916069       -0.27935214425035
C            0.65553588710151       -2.00952381833670        0.25378464691860
C           -0.31541689273766       -0.94295627880149       -0.25135132718960
C           -1.74356670034926       -1.17804161554143        0.23936597832313
C           -2.69796175127823       -0.08628268344955       -0.24366020225730
C           -4.12813910865139       -0.30034661109816        0.24961175013352
C           -5.06946635827352        0.81022152175868       -0.21416885525565
C           -6.50054419682228        0.59819149446556        0.27623168585814
C           -7.42972247101493        1.72073636517838       -0.17063281955807
H            6.97159236188965        2.29953146789782        1.29900269701487
H            8.01596749684220        2.28253776887313       -0.12272704275601
H            6.44947283561510        3.09114202934927       -0.18782490663615
H            6.90037010274791        0.08594984918802        0.14010369877400
H            6.36627671775369        0.88200535927981       -1.34031562374499
H            4.85082919832017        0.86457631646628        1.30646838097062
H            4.31914280216294        1.68133869126436       -0.16340070130534
H            4.78294664597359       -1.32272077387079        0.10634898048699
H            4.23509400635469       -0.49824911837512       -1.35305788667464
H            2.21995897005463        0.30682803157592       -0.13385219449798
H            2.75014114340473       -0.55640637778301        1.31164486429364
H            2.67260301117411       -2.70253936452232        0.03251673916793
H            2.05770947212297       -1.83184287997488       -1.37169938489203
H            0.67633900826899       -1.99105559479186        1.34604198000187
H            0.28753483016259       -2.99231242470473       -0.05203703762008
H           -0.30603279535838       -0.93902092344142       -1.34386330403939
H            0.01279364529814        0.03994820667861        0.08973880890405
H           -1.74882770466597       -1.20272307927361        1.33169750504817
H           -2.09576222096605       -2.14971275556257       -0.11494110318943
H           -2.33956120578651        0.88392719156448        0.10883928042628
H           -2.69416749030745       -0.06264706642360       -1.33596736667406
H           -4.13043990701354       -0.33973557360230        1.34155083699372
H           -4.49672425910063       -1.26149544528497       -0.11647920931215
H           -4.70326176709571        1.77087927631383        0.15584470491444
H           -5.06731396615360        0.85376974927366       -1.30588917923782
H           -6.87544313039697       -0.35404213125670       -0.10572099881704
H           -6.50288333560498        0.54154664870686        1.36715706813155
H           -7.08680483182438        2.67798204925202        0.21620098907147
H           -7.46128860502483        1.78267700727207       -1.25629744491251
H           -8.44039856659889        1.54707092981277        0.19210586972572
44
 energy: -45.308158716440 gnorm: 0.002827146717 xtb: 6.6.1 (8d0f1dd)
C            6.97890595217253        2.22600077373911        0.21270916283542
C            6.32876482273348        0.92709148103033       -0.25131372505785
C            4.87927968519291        0.82145254569662        0.21552919639768
C            4.20990972614205       -0.46639291449093       -0.25893430532235
C            2.76342813817305       -0.56141087366817        0.22131110843933
C            2.07559693468494       -1.82907398618124       -0.28046164578214
C            0.65243555937778       -1.99958840449246        0.25512624434125
C           -0.31702073505418       -0.93506455305892       -0.25342749398596
C           -1.74277425736075       -1.17654291128396        0.23746619842131
C           -2.69658341656959       -0.08586759051964       -0.24452457619282
C           -4.12419028615443       -0.30371997900250        0.25012885029289
C           -5.06382519663378        0.80685771793036       -0.21370893550120
C           -6.49322948379362        0.59320322181781        0.27791506018435
C           -7.42203501690351        1.71607602528268       -0.17096911189926
H            6.96603353671273        2.29088224011602        1.29843134783044
H            8.01156997594486        2.27948892995617       -0.12332664778534
H            6.44189119516094        3.08351438897599       -0.18665331178375
H            6.89544748280732        0.07838878331575        0.13721142857000
H            6.36084413079362        0.87492825254702       -1.34161265311073
H            4.84840997269217        0.86224129399610        1.30664834504236
H            4.31681230691672        1.67843408413955       -0.16195938567405
H            4.77410598114247       -1.32575339788067        0.11022683971030
H            4.23098058538927       -0.50315724031372       -1.35043763698445
H            2.22082047729355        0.31714088302840       -0.13019573646558
H            2.74530232761840       -0.54963582216908        1.31329739859239
H            2.66869080245080       -2.69369368571138        0.02657315538158
H            2.05060761341611       -1.81768470398457       -1.37236471244799
H            0.67371784219230       -1.97562161620509        1.34689737758022
H            0.28240897436166       -2.98242653322195       -0.04585115663366
H           -0.30799326651805       -0.93113342502397       -1.34552148349330
H            0.00576150674104        0.05004419100011        0.08581945970474
H           -1.74845994231920       -1.20386046912932        1.32933136238778
H           -2.09239229606574       -2.14811480544448       -0.11826072283599
H           -2.33889670030245        0.88414789678462        0.10798546236284
H           -2.69286399347093       -0.06094942071785       -1.33640251666365
H           -4.12543081578301       -0.34432862889265        1.34163494716354
H           -4.49146916632375       -1.26507205314425       -0.11558358478753
H           -4.69587485454480        1.76682405082413        0.15540728169827
H           -5.06020454881029        0.85048697423204       -1.30509393014314
H           -6.86609519785429       -0.36003247807224       -0.10246968708546
H           -6.49369548653493        0.53697534119090        1.36849266602180
H           -7.07660081588318        2.67242061676116        0.21532388597915
H           -7.44939381596259        1.77629627364456       -1.25666819208516
H           -8.43309723726763        1.54390052659958        0.19006237278369
44
 energy: -45.308133966064 gnorm: 0.004208135501 xtb: 6.6.1 (8d0f1dd)
C            6.97635523977824        2.22203724630034        0.21233616447129
C            6.32642693736155        0.92272598364885       -0.25240812501712
C            4.87776527518368        0.81951835530924        0.21588301140863
C            4.20686745891018       -0.46735128379088       -0.25747139000927
C            2.76051485035991       -0.55694847031184        0.22268096632227
C            2.07242883648511       -1.82285518714844       -0.28121719146035
C            0.65036291477231       -1.99289652933876        0.25603832334968
C           -0.31809136898744       -0.92975732055929       -0.25482054852493
C           -1.74223687308908       -1.17552117563874        0.23617062415054
C           -2.69566403234816       -0.08558553416798       -0.24511103451032
C           -4.12153900048854       -0.30598733693159        0.25047131156557
C           -5.06005167647279        0.80458425630496       -0.21338962526910
C           -6.48833153906446        0.58984968196798        0.27905206234089
C           -7.41687086015015        1.71292908723997       -0.17119652171732
H            6.96233517485355        2.28504938153958        1.29804515149986
H            8.00862721278942        2.27742596212327       -0.12374299942972
H            6.43681722712785        3.07837919086508       -0.18586509957209
H            6.89215344860300        0.07329771204622        0.13527095100001
H            6.35720040190798        0.87017407358494       -1.34249061522994
H            4.84681606699841        0.86067323360773        1.30678336014175
H            4.31526872248873        1.67649254517595       -0.16099259907994
H            4.76815303201801       -1.32779047532925        0.11287150003886
H            4.22821428155154       -0.50645233070000       -1.34866541421957
H            2.22138199604190        0.32406816568292       -0.12775498268612
H            2.74202745858870       -0.54509460960542        1.31441331965101
H            2.66606628020445       -2.68774916619730        0.02253982374669
H            2.04579815124342       -1.80813879263500       -1.37282759444351
H            0.67198214490886       -1.96521024971642        1.34748878807542
H            0.27896296445250       -2.97578266759587       -0.04165534094879
H           -0.30928449243051       -0.92583905528571       -1.34664292035567
H            0.00105671083084        0.05683307876573        0.08319493986835
H           -1.74820700219726       -1.20461563893182        1.32773104967610
H           -2.09011619494298       -2.14703315503007       -0.12052569734023
H           -2.33846207750810        0.88430835637698        0.10741460438103
H           -2.69200314407081       -0.05980336401097       -1.33670963677097
H           -4.12205991366600       -0.34741653956956        1.34169506209114
H           -4.48793576337091       -1.26748369731935       -0.11499606979830
H           -4.69093110122316        1.76409324524191        0.15513147178586
H           -5.05545503721701        0.84826613196994       -1.30455742783560
H           -6.85983646914682       -0.36406703542099       -0.10027731927929
H           -6.48754306947062        0.53391237136244        1.36940433093180
H           -7.06975778476579        2.66867491808913        0.21473541385960
H           -7.44140473296824        1.77199112038097       -1.25692136442382
H           -8.42820165388131        1.54176651765110        0.18867528756559
44
 energy: -45.308165658436 gnorm: 0.001258560849 xtb: 6.6.1 (8d0f1dd)
C            6.97943106189149        2.22564120844211        0.21257601439160
C            6.32925903801640        0.92729837976657       -0.25125413228413
C            4.87979755071506        0.82146980247042        0.21561041897152
C            4.20992221170246       -0.46612468579867       -0.25844299485976
C            2.76338826813392       -0.56160851226322        0.22117581236277
C            2.07541032841914       -1.82916484895999       -0.28065013095805
C            0.65279448633487       -1.99954862478850        0.25535091623325
C           -0.31672432080796       -0.93520585853540       -0.25333789712112
C           -1.74261657205286       -1.17613174736327        0.23693502290664
C           -2.69682688453060       -0.08578143216690       -0.24461086824315
C           -4.12437399787863       -0.30367395279846        0.24998990224261
C           -5.06451597303391        0.80651172720582       -0.21340121051428
C           -6.49401426968557        0.59335550387366        0.27805237111029
C           -7.42234751258707        1.71581917197921       -0.17099560819628
H            6.96726047911294        2.29072446206511        1.29842649326202
H            8.01220079897080        2.27958817245764       -0.12353663161033
H            6.44274283927231        3.08365355290170       -0.18650957147556
H            6.89607976118448        0.07819421320745        0.13701558309058
H            6.36136206428016        0.87494954417619       -1.34183856231320
H            4.84920548414609        0.86259796995308        1.30699582637633
H            4.31743379564069        1.67889009112668       -0.16183294895276
H            4.77404088392947       -1.32577845904109        0.11096566787699
H            4.23118137805480       -0.50326679118660       -1.35020677207017
H            2.22013516099153        0.31679250690592       -0.13045049686766
H            2.74458452372613       -0.54978977652404        1.31345467978649
H            2.66914590339543       -2.69407961899848        0.02541739189510
H            2.04997827145308       -1.81751307978114       -1.37278515523440
H            0.67430183663620       -1.97524980297060        1.34736364146713
H            0.28222054606120       -2.98284192490362       -0.04466832866913
H           -0.30707380742499       -0.93116912992236       -1.34574400779648
H            0.00670066552403        0.04998241350564        0.08587816880554
H           -1.74839642087277       -1.20389545753381        1.32908904836805
H           -2.09216841604028       -2.14801286731409       -0.11895300568524
H           -2.33922824269344        0.88460991925487        0.10791304009559
H           -2.69320872304051       -0.06046441469027       -1.33678723736735
H           -4.12553423901955       -0.34461107604708        1.34178049183201
H           -4.49156602771349       -1.26539422604143       -0.11572039303599
H           -4.69657538208643        1.76683262902398        0.15562734035160
H           -5.06107364246304        0.85034177073850       -1.30505863083584
H           -6.86706162760606       -0.36028665260805       -0.10199115790168
H           -6.49463793174298        0.53709106661777        1.36892498327442
H           -7.07730418965432        2.67250427036352        0.21519622459899
H           -7.44992242137867        1.77613549876309       -1.25681511120064
H           -8.43380773527952        1.54428006543815        0.18963981389366
44
 energy: -45.308169510706 gnorm: 0.000226402775 xtb: 6.6.1 (8d0f1dd)
C            6.98021710201613        2.22484569226821        0.21240297686445
C            6.32983437389305        0.92711966070837       -0.25127797939984
C            4.88043380858687        0.82140654269493        0.21586915162188
C            4.20994914697947       -0.46591315183295       -0.25766537717878
C            2.76325195820547       -0.56142124511684        0.22104877342827
C            2.07502394083750       -1.82875659629397       -0.28107670760516
C            0.65314473974321       -1.99893143035514        0.25582904453704
C           -0.31643656600576       -0.93487195985053       -0.25331794417953
C           -1.74248610787034       -1.17556716300845        0.23611567767050
C           -2.69716552265881       -0.08552219406885       -0.24485110751870
C           -4.12456785050206       -0.30387049473161        0.24984925495041
C           -5.06531651265674        0.80588301009494       -0.21298194542825
C           -6.49487178629374        0.59317043813205        0.27844504254181
C           -7.42261348736766        1.71525503382871       -0.17112309455414
H            6.96900451668354        2.28992382346303        1.29836691783414
H            8.01297141499633        2.27911608406902       -0.12412847371243
H            6.44374310040226        3.08337193267362       -0.18614337290651
H            6.89670538140461        0.07762416790689        0.13666926474158
H            6.36175654060922        0.87475655765741       -1.34208523354034
H            4.85038386467193        0.86289485608628        1.30745352637758
H            4.31833730486051        1.67925922078907       -0.16157494965623
H            4.77370048977733       -1.32580881097468        0.11233789172578
H            4.23155651462289       -0.50355852819712       -1.34960794429326
H            2.21964153555395        0.31685958328472       -0.13085606570446
H            2.74353569824367       -0.54975893026582        1.31353935270157
H            2.66935165110087       -2.69406753108148        0.02358642443482
H            2.04867300587110       -1.81637900038586       -1.37336555611093
H            0.67521579511484       -1.97369000742414        1.34800278095602
H            0.28204841358039       -2.98275621610074       -0.04275340702368
H           -0.30589040980059       -0.93097384899068       -1.34595723256831
H            0.00743448968584        0.05036506704942        0.08592664781019
H           -1.74844422240454       -1.20391853670416        1.32848102126313
H           -2.09178458343473       -2.14762559270828       -0.12025389196574
H           -2.33982745581063        0.88516310466194        0.10786520106699
H           -2.69378732234018       -0.05973455114714       -1.33725195718947
H           -4.12551314490168       -0.34515869616411        1.34184994156355
H           -4.49150451332299       -1.26588529201194       -0.11600113614498
H           -4.69747766208504        1.76649473526969        0.15599832762115
H           -5.06226165717665        0.84984998863784       -1.30484107765406
H           -6.86812693083136       -0.36083172025959       -0.10112571585510
H           -6.49568219433031        0.53722914964766        1.36955431231717
H           -7.07792286900528        2.67226801797777        0.21487931910600
H           -7.45014009844518        1.77545835620082       -1.25705405182404
H           -8.43449489019674        1.54435747457170        0.18901137087990
