 Entering Gaussian System
 *********************************************
 Gaussian 98:
 frequency output generated by the xtb code
 *********************************************
                         Standard orientation:
 --------------------------------------------------------------------
  Center     Atomic     Atomic              Coordinates (Angstroms)
  Number     Number      Type              X           Y           Z
 --------------------------------------------------------------------
    1          6             0        0.743798   -1.965000    2.303629
    2          6             0        1.905413   -2.659542    1.602740
    3          6             0        1.740629   -2.736792    0.083491
    4          6             0        1.679240   -1.383477   -0.627646
    5          6             0        2.940586   -0.545485   -0.430071
    6          6             0        2.990505    0.697818   -1.320762
    7          6             0        1.827044    1.672725   -1.126272
    8          6             0        1.702150    2.181770    0.308113
    9          6             0        0.692495    3.321151    0.463305
   10          6             0       -0.724273    2.996091   -0.015464
   11          6             0       -1.327282    1.756571    0.641235
   12          6             0       -2.777508    1.546721    0.211870
   13          6             0       -3.387391    0.245920    0.738223
   14          6             0       -2.742775   -1.034300    0.202023
   15          6             0       -2.842297   -1.185032   -1.314300
   16          6             0       -2.302792   -2.532053   -1.780080
   17          1             0        0.872252   -2.012460    3.382846
   18          1             0       -0.198164   -2.447408    2.050266
   19          1             0        0.683365   -0.917209    2.020623
   20          1             0        2.837380   -2.146864    1.846228
   21          1             0        1.986987   -3.679744    1.986458
   22          1             0        2.576274   -3.310732   -0.325658
   23          1             0        0.823738   -3.290025   -0.138800
   24          1             0        0.808320   -0.831158   -0.275148
   25          1             0        1.539839   -1.564695   -1.697037
   26          1             0        3.812104   -1.164657   -0.659766
   27          1             0        3.022955   -0.240379    0.613240
   28          1             0        3.005032    0.382694   -2.367608
   29          1             0        3.928629    1.223526   -1.123495
   30          1             0        1.982115    2.526920   -1.790804
   31          1             0        0.899603    1.187248   -1.430190
   32          1             0        1.418073    1.362646    0.968951
   33          1             0        2.678857    2.544079    0.640167
   34          1             0        1.050782    4.190792   -0.093809
   35          1             0        0.652595    3.601889    1.519142
   36          1             0       -1.362821    3.857361    0.198855
   37          1             0       -0.720477    2.859512   -1.098806
   38          1             0       -1.279227    1.854792    1.728517
   39          1             0       -0.742401    0.882923    0.357351
   40          1             0       -3.379038    2.382671    0.578515
   41          1             0       -2.836334    1.562539   -0.877941
   42          1             0       -4.449404    0.233944    0.479349
   43          1             0       -3.314802    0.239792    1.828941
   44          1             0       -3.242655   -1.886337    0.670833
   45          1             0       -1.693863   -1.075562    0.498660
   46          1             0       -3.886984   -1.085742   -1.618728
   47          1             0       -2.275376   -0.391423   -1.803576
   48          1             0       -2.383843   -2.624795   -2.860854
   49          1             0       -2.860193   -3.347426   -1.323462
   50          1             0       -1.255303   -2.637211   -1.505294
 --------------------------------------------------------------------
     1 basis functions        1 primitive gaussians
     1 alpha electrons        1 beta electrons
 
 Harmonic frequencies (cm**-1), IR intensities (KM/Mole),
 Raman scattering activities (A**4/amu), Raman depolarization ratios,
 reduced masses (AMU), force constants (mDyne/A) and normal coordinates:
                      1                      2                      3
                        a                      a                      a 
 Frequencies --    16.1531                23.7371                38.1974
 Red. masses --    99.0000                99.0000                99.0000
 Frc consts  --    99.0000                99.0000                99.0000
 IR Inten    --    99.0000                99.0000                99.0000
 Raman Activ --     0.0000                 0.0000                 0.0000
 Depolar     --     0.0000                 0.0000                 0.0000
 Atom AN      X      Y      Z        X      Y      Z        X      Y      Z
   1   6    -0.04  -0.29  -0.19     0.10  -0.01   0.08    -0.08  -0.38   0.03
   2   6     0.06  -0.15  -0.15     0.11   0.02   0.07    -0.05  -0.24  -0.06
   3   6     0.17  -0.05  -0.17     0.05  -0.08   0.08    -0.06  -0.08  -0.06
   4   6     0.13  -0.01  -0.08    -0.06  -0.12   0.01    -0.09   0.00   0.09
   5   6     0.07   0.05   0.05    -0.07  -0.07  -0.13    -0.11   0.01   0.19
   6   6     0.08   0.08   0.10    -0.20  -0.09  -0.17    -0.02  -0.03   0.13
   7   6     0.04   0.03   0.06    -0.20  -0.11  -0.05    -0.03  -0.01  -0.04
   8   6    -0.04  -0.00   0.07    -0.08  -0.13  -0.04    -0.05   0.20  -0.11
   9   6    -0.03   0.01   0.03    -0.01  -0.08   0.06    -0.09   0.19  -0.29
  10   6    -0.01   0.05  -0.07    -0.05   0.02   0.09    -0.09   0.06  -0.20
  11   6    -0.09   0.08  -0.10    -0.09   0.01   0.04     0.00   0.12   0.00
  12   6    -0.06   0.12  -0.19    -0.09   0.08   0.02    -0.02   0.00   0.13
  13   6    -0.19   0.21  -0.10    -0.15   0.07  -0.07     0.15  -0.07   0.16
  14   6    -0.17   0.12   0.15    -0.05   0.08   0.02     0.21   0.01   0.05
  15   6     0.04  -0.07   0.16     0.41   0.22  -0.03     0.13   0.09   0.05
  16   6     0.03  -0.15   0.40     0.37   0.18   0.03     0.19   0.15  -0.06
  17   1    -0.03  -0.10  -0.05     0.04   0.01   0.02    -0.02  -0.14   0.01
  18   1     0.00  -0.10  -0.08     0.03  -0.02   0.04    -0.02  -0.12  -0.00
  19   1    -0.03  -0.08  -0.03     0.01  -0.01   0.01    -0.04  -0.10   0.04
  20   1     0.00  -0.03  -0.01     0.03   0.02   0.00    -0.02  -0.06  -0.00
  21   1     0.03  -0.05  -0.06     0.05   0.01   0.04     0.00  -0.08  -0.05
  22   1     0.07   0.01  -0.04     0.02  -0.02   0.02    -0.02  -0.00  -0.04
  23   1     0.07  -0.03  -0.08     0.02  -0.04   0.04    -0.02  -0.02  -0.03
  24   1     0.02  -0.02  -0.03    -0.01  -0.04   0.01    -0.03  -0.02   0.04
  25   1     0.06   0.02  -0.03    -0.04  -0.05   0.01    -0.02   0.03   0.02
  26   1     0.03   0.03   0.03    -0.02  -0.01  -0.06    -0.03   0.00   0.09
  27   1    -0.01   0.00   0.02     0.01  -0.01  -0.04    -0.07   0.02   0.05
  28   1     0.04   0.03   0.03    -0.09  -0.03  -0.05     0.02  -0.03   0.04
  29   1     0.02   0.03   0.05    -0.06  -0.02  -0.08    -0.01  -0.01   0.05
  30   1     0.01   0.02   0.03    -0.08  -0.03  -0.02    -0.00  -0.03  -0.05
  31   1     0.02   0.00   0.00    -0.06  -0.03   0.01    -0.01  -0.02   0.00
  32   1    -0.03  -0.00   0.01    -0.02  -0.04  -0.01    -0.01   0.08   0.00
  33   1    -0.02  -0.01   0.04    -0.01  -0.05  -0.03    -0.02   0.08  -0.05
  34   1     0.01   0.01   0.02     0.00  -0.02   0.02    -0.04   0.03  -0.13
  35   1    -0.03  -0.00   0.01     0.01  -0.04   0.02    -0.02   0.11  -0.10
  36   1     0.00   0.02  -0.04     0.00   0.01   0.04    -0.04   0.02  -0.09
  37   1     0.02   0.01  -0.02    -0.03   0.02   0.02    -0.03  -0.03  -0.05
  38   1    -0.05   0.03  -0.03    -0.03  -0.01   0.01     0.02   0.07  -0.00
  39   1    -0.03   0.02  -0.01    -0.03   0.00   0.00     0.01   0.03   0.02
  40   1    -0.01   0.06  -0.09    -0.02   0.02   0.02    -0.02  -0.02   0.06
  41   1     0.01   0.00  -0.06    -0.02   0.04   0.01    -0.04   0.01   0.04
  42   1    -0.04   0.07  -0.07    -0.03   0.02  -0.06     0.04  -0.04   0.08
  43   1    -0.10   0.10  -0.03    -0.09   0.02  -0.02     0.08  -0.03   0.04
  44   1    -0.08   0.06   0.06    -0.07   0.02  -0.06     0.08  -0.02   0.01
  45   1    -0.06   0.03   0.09    -0.04  -0.00   0.10     0.06   0.02  -0.00
  46   1     0.02  -0.02  -0.00     0.15   0.11  -0.10     0.03   0.01   0.03
  47   1     0.04  -0.05   0.04     0.19   0.05   0.06     0.02   0.04   0.02
  48   1     0.05  -0.08   0.12     0.21   0.08  -0.00     0.04   0.06  -0.02
  49   1    -0.02  -0.02   0.12     0.03   0.06  -0.07     0.08   0.03  -0.02
  50   1    -0.00  -0.05   0.16     0.08   0.00   0.11     0.06   0.06  -0.04
                      4                      5                      6
                        a                      a                      a 
 Frequencies --    40.8080                45.2152                56.4902
 Red. masses --    99.0000                99.0000                99.0000
 Frc consts  --    99.0000                99.0000                99.0000
 IR Inten    --    99.0000                99.0000                99.0000
 Raman Activ --     0.0000                 0.0000                 0.0000
 Depolar     --     0.0000                 0.0000                 0.0000
 Atom AN      X      Y      Z        X      Y      Z        X      Y      Z
   1   6     0.18   0.09   0.12     0.56  -0.04   0.22     0.05   0.25  -0.07
   2   6    -0.10  -0.10  -0.15     0.32  -0.20  -0.02    -0.13   0.00  -0.11
   3   6    -0.39   0.06  -0.13     0.04  -0.07   0.00    -0.17   0.07  -0.11
   4   6    -0.30   0.13   0.00    -0.01  -0.01   0.12     0.01   0.10  -0.07
   5   6    -0.18  -0.03  -0.03    -0.00  -0.02   0.12     0.05  -0.01   0.08
   6   6    -0.07   0.00   0.02     0.01  -0.03   0.11     0.23   0.02   0.13
   7   6     0.01   0.09   0.05    -0.01  -0.04   0.05     0.22   0.04  -0.02
   8   6     0.05   0.06   0.06    -0.06  -0.00   0.03    -0.01  -0.03  -0.01
   9   6     0.05   0.06   0.11    -0.06   0.01  -0.05    -0.09  -0.08  -0.11
  10   6     0.05   0.08   0.07    -0.04   0.00  -0.09    -0.05  -0.19  -0.14
  11   6     0.04   0.06   0.01    -0.08   0.04  -0.06     0.00  -0.20  -0.12
  12   6     0.10  -0.03  -0.17    -0.08   0.06  -0.06    -0.09  -0.07   0.14
  13   6     0.08  -0.00  -0.14    -0.09   0.06  -0.06    -0.10  -0.07   0.15
  14   6     0.14  -0.03  -0.00    -0.12   0.06  -0.09    -0.13  -0.07   0.13
  15   6     0.17  -0.18   0.01    -0.15   0.09  -0.09     0.24   0.16   0.08
  16   6     0.16  -0.24   0.15    -0.25   0.07  -0.13    -0.03   0.07   0.04
  17   1     0.11  -0.01   0.03     0.21  -0.04   0.06     0.02   0.07  -0.02
  18   1     0.01   0.09   0.08     0.12   0.05   0.10    -0.02   0.13  -0.01
  19   1     0.10   0.03   0.06     0.21  -0.00   0.09     0.07   0.08  -0.02
  20   1     0.02  -0.09  -0.08     0.13  -0.11  -0.05    -0.00  -0.06  -0.03
  21   1    -0.07  -0.04  -0.07     0.06  -0.07  -0.03    -0.10  -0.01  -0.04
  22   1    -0.16  -0.01  -0.10    -0.02  -0.03  -0.06    -0.07  -0.01  -0.04
  23   1    -0.15   0.07  -0.00    -0.01   0.00   0.03    -0.07   0.06  -0.03
  24   1    -0.06   0.06   0.04     0.00  -0.01   0.07     0.00   0.04  -0.04
  25   1    -0.12   0.07   0.00    -0.02   0.02   0.03     0.02   0.04  -0.03
  26   1    -0.08  -0.04  -0.03    -0.00  -0.01   0.04     0.01  -0.02   0.04
  27   1    -0.03  -0.02  -0.01    -0.00  -0.00   0.03    -0.01  -0.02   0.03
  28   1    -0.03   0.01   0.00     0.02  -0.01   0.03     0.11   0.02   0.04
  29   1    -0.01  -0.03   0.01    -0.00  -0.00   0.04     0.06  -0.00   0.09
  30   1     0.02   0.03   0.02    -0.00  -0.02   0.01     0.10   0.02   0.01
  31   1    -0.01   0.05   0.01     0.00  -0.02   0.01     0.08   0.02  -0.06
  32   1     0.02   0.01   0.01    -0.03   0.01   0.01    -0.02  -0.02  -0.03
  33   1     0.02   0.01   0.02    -0.02   0.00   0.02    -0.02   0.00   0.04
  34   1     0.02   0.02   0.05    -0.01  -0.00  -0.02    -0.03  -0.02  -0.04
  35   1     0.01   0.00   0.04    -0.03   0.01  -0.02    -0.04  -0.01  -0.04
  36   1     0.01   0.02   0.03    -0.01   0.01  -0.04    -0.03  -0.06  -0.05
  37   1     0.02   0.04   0.02    -0.00  -0.01  -0.02    -0.01  -0.06  -0.04
  38   1    -0.03   0.02   0.00    -0.03   0.02  -0.02     0.06  -0.08  -0.03
  39   1     0.03   0.02   0.03    -0.03   0.00  -0.00    -0.03  -0.06  -0.09
  40   1     0.01  -0.01  -0.09    -0.02   0.02  -0.02     0.01  -0.02   0.09
  41   1     0.07  -0.03  -0.05    -0.02   0.02  -0.02    -0.09   0.00   0.04
  42   1     0.03  -0.01  -0.07    -0.03   0.02  -0.01    -0.03  -0.01   0.05
  43   1    -0.00   0.02  -0.04    -0.02   0.02  -0.02    -0.03  -0.02   0.04
  44   1     0.05  -0.00   0.02    -0.04   0.02  -0.03    -0.10  -0.02  -0.03
  45   1     0.04   0.01   0.01    -0.03   0.01  -0.03    -0.06  -0.07   0.11
  46   1     0.05  -0.06  -0.01    -0.04   0.05  -0.02     0.10   0.15  -0.06
  47   1     0.06  -0.07  -0.02    -0.03   0.02  -0.02     0.18   0.02   0.10
  48   1     0.05  -0.10   0.05    -0.07   0.03  -0.04     0.08   0.07   0.00
  49   1     0.04  -0.05   0.07    -0.09   0.03  -0.04    -0.12   0.05  -0.07
  50   1     0.05  -0.06   0.05    -0.07  -0.01  -0.04    -0.04  -0.09   0.10
                      7                      8                      9
                        a                      a                      a 
 Frequencies --    64.6258                77.8758               110.8094
 Red. masses --    99.0000                99.0000                99.0000
 Frc consts  --    99.0000                99.0000                99.0000
 IR Inten    --    99.0000                99.0000                99.0000
 Raman Activ --     0.0000                 0.0000                 0.0000
 Depolar     --     0.0000                 0.0000                 0.0000
 Atom AN      X      Y      Z        X      Y      Z        X      Y      Z
   1   6     0.12   0.32  -0.16     0.03   0.27  -0.23     0.03   0.03  -0.04
   2   6    -0.05  -0.06  -0.07    -0.03  -0.04  -0.02     0.03  -0.03   0.02
   3   6    -0.02  -0.12  -0.07     0.12  -0.19  -0.03     0.06  -0.10   0.02
   4   6     0.06  -0.14  -0.13     0.09  -0.25  -0.15    -0.05  -0.13  -0.03
   5   6    -0.00  -0.09   0.06    -0.09  -0.05   0.10    -0.16   0.02   0.07
   6   6     0.04  -0.06   0.11    -0.12  -0.03   0.12    -0.17   0.00   0.05
   7   6     0.01  -0.08   0.05    -0.15  -0.07   0.11    -0.12   0.06   0.08
   8   6    -0.06  -0.06   0.04    -0.05   0.10   0.06    -0.03   0.10   0.07
   9   6    -0.03  -0.03  -0.02    -0.03   0.13  -0.01    -0.01   0.11   0.11
  10   6    -0.04  -0.01  -0.03    -0.04   0.11   0.04     0.02   0.13   0.01
  11   6    -0.09   0.06   0.06    -0.03   0.17   0.14     0.25  -0.26  -0.51
  12   6    -0.08   0.05   0.04     0.04   0.00  -0.01     0.09  -0.01  -0.05
  13   6    -0.06   0.03   0.03     0.13  -0.04  -0.00     0.09   0.04   0.05
  14   6    -0.01   0.06   0.03     0.19   0.00  -0.03    -0.02  -0.02   0.05
  15   6    -0.24  -0.08   0.06     0.21   0.04  -0.04    -0.05   0.00   0.05
  16   6     0.40   0.18   0.03    -0.26  -0.16  -0.01     0.03   0.05   0.01
  17   1     0.02   0.10  -0.04    -0.03   0.10  -0.06     0.01   0.03  -0.01
  18   1    -0.00   0.17  -0.05    -0.01   0.13  -0.08     0.01   0.01  -0.00
  19   1     0.13   0.09  -0.06     0.08   0.07  -0.10     0.01   0.00  -0.03
  20   1     0.02  -0.09  -0.02     0.01  -0.05   0.00     0.01  -0.01   0.00
  21   1    -0.10  -0.02   0.00    -0.08  -0.00   0.03     0.00  -0.00   0.02
  22   1    -0.01  -0.05  -0.01     0.06  -0.05   0.03     0.03  -0.01   0.02
  23   1    -0.01  -0.02  -0.02     0.05  -0.08  -0.02     0.03  -0.05   0.01
  24   1    -0.00  -0.05  -0.08    -0.02  -0.10  -0.12    -0.04  -0.06  -0.04
  25   1     0.07  -0.05  -0.04     0.11  -0.10  -0.05     0.02  -0.05  -0.01
  26   1     0.02  -0.01   0.04     0.02   0.03   0.07    -0.02   0.03   0.05
  27   1    -0.04  -0.04   0.02    -0.10  -0.01   0.03    -0.08   0.01   0.02
  28   1     0.04  -0.01   0.03    -0.02  -0.01   0.03    -0.06  -0.00   0.02
  29   1     0.00  -0.01   0.06    -0.04   0.00   0.04    -0.04  -0.01   0.00
  30   1     0.01  -0.03   0.01    -0.07  -0.04  -0.00    -0.03   0.01   0.02
  31   1     0.01  -0.03   0.01    -0.04  -0.04   0.07    -0.04   0.03   0.03
  32   1    -0.03  -0.01   0.01    -0.01   0.05   0.05    -0.00   0.03   0.03
  33   1    -0.02  -0.02   0.03    -0.01   0.03  -0.01    -0.00   0.02   0.00
  34   1     0.00  -0.02  -0.02    -0.01   0.02  -0.03     0.01   0.05   0.06
  35   1    -0.01   0.00  -0.01     0.00   0.07  -0.01    -0.02   0.00   0.04
  36   1    -0.00   0.01  -0.03    -0.01   0.04  -0.01    -0.03  -0.02   0.13
  37   1    -0.00  -0.03  -0.01    -0.01   0.01   0.01    -0.01   0.18  -0.01
  38   1    -0.03   0.04   0.01    -0.05   0.09   0.04     0.19  -0.26  -0.14
  39   1    -0.03   0.01   0.04     0.02   0.05   0.10     0.04  -0.03  -0.36
  40   1    -0.03   0.01   0.01    -0.02  -0.01  -0.04     0.09   0.01   0.07
  41   1    -0.02   0.02   0.01     0.05  -0.02  -0.00    -0.08   0.04  -0.01
  42   1    -0.02   0.00   0.01     0.04  -0.03   0.00     0.02   0.02   0.05
  43   1    -0.02   0.01   0.01     0.04  -0.01  -0.00     0.06   0.02   0.01
  44   1     0.05   0.01   0.05     0.06  -0.01  -0.02    -0.02   0.01   0.01
  45   1     0.01   0.06  -0.04     0.05   0.01  -0.00    -0.01  -0.03   0.01
  46   1    -0.10  -0.19   0.07     0.08   0.12  -0.03    -0.02  -0.02   0.02
  47   1    -0.22   0.06  -0.03     0.15  -0.05  -0.00    -0.03   0.01   0.02
  48   1     0.04   0.01   0.02    -0.05  -0.03  -0.01    -0.00   0.01   0.01
  49   1     0.29  -0.03   0.07    -0.18   0.01  -0.03     0.03   0.00   0.01
  50   1     0.16   0.23  -0.07    -0.10  -0.17   0.03     0.01   0.04  -0.01
                     10                     11                     12
                        a                      a                      a 
 Frequencies --   157.8169               137.7531               177.4747
 Red. masses --    99.0000                99.0000                99.0000
 Frc consts  --    99.0000                99.0000                99.0000
 IR Inten    --    99.0000                99.0000                99.0000
 Raman Activ --     0.0000                 0.0000                 0.0000
 Depolar     --     0.0000                 0.0000                 0.0000
 Atom AN      X      Y      Z        X      Y      Z        X      Y      Z
   1   6     0.03  -0.10   0.08     0.02   0.03  -0.05     0.03  -0.02   0.01
   2   6     0.17   0.29  -0.05     0.00  -0.06   0.01     0.03  -0.01  -0.00
   3   6    -0.12  -0.04  -0.01     0.05  -0.05   0.00     0.01  -0.02   0.00
   4   6    -0.08  -0.18  -0.28    -0.03  -0.05   0.02     0.00  -0.02  -0.02
   5   6    -0.18  -0.09  -0.00    -0.10   0.04   0.09    -0.12   0.10   0.24
   6   6     0.04  -0.02   0.11    -0.07  -0.03  -0.01     0.11  -0.07   0.02
   7   6     0.14   0.09   0.09     0.00   0.06  -0.04     0.17   0.07  -0.31
   8   6     0.03   0.05   0.09     0.26   0.36  -0.12    -0.09  -0.12  -0.27
   9   6    -0.02   0.02  -0.00     0.05   0.17  -0.09     0.06  -0.03  -0.05
  10   6     0.02  -0.05  -0.08     0.05  -0.14   0.13    -0.12   0.18   0.34
  11   6    -0.02   0.03   0.04     0.14  -0.14   0.24    -0.02  -0.01   0.08
  12   6     0.00  -0.02  -0.02     0.18  -0.08   0.05    -0.06   0.09   0.17
  13   6    -0.00  -0.00   0.01    -0.17   0.02  -0.10    -0.07  -0.01  -0.09
  14   6    -0.03  -0.02   0.02    -0.37  -0.10  -0.04     0.05   0.06  -0.11
  15   6    -0.02   0.00   0.01    -0.09  -0.05  -0.06     0.02  -0.05  -0.10
  16   6     0.01   0.03  -0.02     0.09   0.00  -0.00    -0.01  -0.12   0.06
  17   1     0.19   0.22   0.01    -0.02  -0.00  -0.01     0.03   0.03   0.00
  18   1     0.07  -0.28   0.27    -0.00   0.03  -0.03     0.01  -0.03   0.03
  19   1    -0.27  -0.10  -0.18     0.04   0.01  -0.01    -0.02  -0.01  -0.03
  20   1     0.00   0.21  -0.10     0.01  -0.03   0.01     0.01   0.00  -0.01
  21   1     0.20   0.11   0.04    -0.02  -0.02   0.01     0.01  -0.00   0.00
  22   1    -0.07  -0.06  -0.01     0.03   0.00   0.01     0.00  -0.00   0.00
  23   1    -0.06  -0.01   0.08     0.03  -0.03  -0.01     0.00  -0.01   0.00
  24   1    -0.06  -0.05  -0.18    -0.03  -0.03  -0.00    -0.04  -0.03  -0.07
  25   1     0.07  -0.11  -0.08     0.01  -0.01   0.00     0.07  -0.02  -0.01
  26   1    -0.03  -0.02   0.05    -0.01   0.02   0.06    -0.00   0.03   0.18
  27   1    -0.13  -0.03   0.01    -0.06   0.03   0.02    -0.13   0.08   0.06
  28   1     0.04   0.02   0.02    -0.04  -0.03   0.01     0.08  -0.08   0.02
  29   1     0.02  -0.04   0.08    -0.01  -0.02  -0.03     0.03  -0.03   0.03
  30   1     0.08   0.03   0.04    -0.02  -0.02  -0.07     0.14   0.03  -0.05
  31   1     0.03   0.06  -0.00    -0.02   0.01   0.06     0.05   0.07  -0.18
  32   1    -0.00   0.01   0.02     0.16   0.13   0.03    -0.08  -0.06  -0.14
  33   1    -0.00   0.02   0.05     0.08   0.18  -0.12    -0.03  -0.09  -0.01
  34   1    -0.00   0.00  -0.00    -0.06   0.05  -0.07     0.00  -0.01  -0.03
  35   1    -0.03   0.02  -0.00     0.05   0.08  -0.03     0.11  -0.02  -0.01
  36   1    -0.00  -0.01  -0.07    -0.01  -0.06   0.03    -0.00   0.04   0.23
  37   1     0.03  -0.05  -0.02    -0.01  -0.07   0.04    -0.14   0.15   0.08
  38   1    -0.03   0.05   0.01     0.01  -0.01   0.07     0.03  -0.10   0.03
  39   1    -0.00  -0.00   0.05     0.05  -0.05   0.10    -0.01   0.02  -0.08
  40   1    -0.01  -0.00  -0.03     0.06  -0.00  -0.02    -0.01   0.01   0.11
  41   1     0.02  -0.02  -0.01     0.10  -0.02   0.01    -0.04   0.09   0.05
  42   1    -0.00   0.00   0.01    -0.04   0.08  -0.08    -0.01  -0.00  -0.07
  43   1     0.00   0.01   0.00    -0.11  -0.01  -0.03    -0.07  -0.04  -0.02
  44   1    -0.02  -0.00   0.00    -0.18  -0.00  -0.05     0.04   0.01  -0.02
  45   1    -0.01  -0.02   0.01    -0.12  -0.09   0.05     0.02   0.05  -0.04
  46   1    -0.00  -0.00   0.00    -0.01  -0.03  -0.08     0.00  -0.02  -0.02
  47   1    -0.01   0.01   0.01    -0.01  -0.00   0.02     0.00  -0.03  -0.05
  48   1     0.00   0.02  -0.01     0.11   0.02  -0.01    -0.02  -0.08   0.02
  49   1     0.01   0.00  -0.01     0.01  -0.02  -0.05     0.00  -0.01   0.06
  50   1     0.00   0.01  -0.01     0.01   0.01   0.07     0.00  -0.03   0.00
                     13                     14                     15
                        a                      a                      a 
 Frequencies --   201.2788               209.3233               241.7269
 Red. masses --    99.0000                99.0000                99.0000
 Frc consts  --    99.0000                99.0000                99.0000
 IR Inten    --    99.0000                99.0000                99.0000
 Raman Activ --     0.0000                 0.0000                 0.0000
 Depolar     --     0.0000                 0.0000                 0.0000
 Atom AN      X      Y      Z        X      Y      Z        X      Y      Z
   1   6     0.01   0.02  -0.09     0.00   0.01   0.01    -0.01  -0.01  -0.08
   2   6     0.07  -0.00   0.04    -0.05   0.01  -0.07     0.16   0.20  -0.01
   3   6     0.15  -0.03   0.03    -0.09   0.08  -0.07     0.04   0.02   0.01
   4   6    -0.18  -0.03   0.06     0.12   0.12   0.00    -0.19  -0.01  -0.00
   5   6    -0.30   0.13   0.14     0.10   0.10   0.17    -0.07  -0.17  -0.13
   6   6    -0.08  -0.05  -0.09     0.03   0.03   0.07     0.08  -0.02   0.12
   7   6     0.17   0.24  -0.14    -0.21  -0.24  -0.08     0.06  -0.04   0.10
   8   6     0.02  -0.09  -0.04    -0.15  -0.18  -0.09    -0.16  -0.09   0.10
   9   6     0.02  -0.14   0.14     0.09   0.01  -0.05     0.04   0.12  -0.22
  10   6     0.08  -0.07  -0.09    -0.01   0.17   0.14    -0.07   0.12   0.10
  11   6    -0.07   0.06   0.01     0.06   0.07   0.01     0.08   0.01   0.05
  12   6     0.03  -0.11  -0.22     0.18  -0.14  -0.25     0.11  -0.06  -0.03
  13   6     0.07  -0.01   0.08     0.11   0.01   0.06    -0.01   0.00  -0.01
  14   6    -0.00  -0.07   0.14    -0.15  -0.16   0.14    -0.15  -0.10   0.05
  15   6    -0.01   0.04   0.13    -0.07  -0.02   0.13     0.09   0.01   0.02
  16   6    -0.01   0.12  -0.09     0.03   0.11  -0.11    -0.01  -0.00  -0.06
  17   1    -0.10  -0.10  -0.02     0.08   0.09  -0.00    -0.14  -0.19  -0.02
  18   1    -0.00   0.09  -0.16     0.01  -0.06   0.11     0.01   0.08  -0.22
  19   1     0.09   0.04   0.07    -0.07  -0.02  -0.08     0.08   0.05   0.15
  20   1     0.02   0.00   0.03    -0.01  -0.00  -0.03     0.01   0.12  -0.02
  21   1     0.01   0.00   0.02    -0.01   0.00  -0.03     0.12   0.07   0.02
  22   1     0.10   0.06   0.01    -0.05  -0.01  -0.03     0.03   0.04  -0.01
  23   1     0.09  -0.08  -0.00    -0.05   0.07  -0.02     0.03  -0.04   0.05
  24   1    -0.09  -0.06   0.01     0.03   0.04  -0.02    -0.03   0.00   0.06
  25   1    -0.03  -0.01   0.01     0.07   0.05  -0.01    -0.12   0.01   0.01
  26   1    -0.07   0.03   0.13     0.04   0.04   0.09    -0.05  -0.08  -0.10
  27   1    -0.15   0.09   0.03    -0.01   0.05   0.04     0.03  -0.10  -0.03
  28   1    -0.06  -0.07  -0.01     0.07  -0.02   0.03     0.07   0.06   0.02
  29   1     0.02  -0.07  -0.07    -0.03   0.07   0.04     0.02  -0.02   0.11
  30   1     0.15   0.10   0.02    -0.12  -0.07  -0.04     0.05   0.00   0.05
  31   1     0.03   0.16  -0.12    -0.03  -0.13  -0.00     0.03  -0.00  -0.02
  32   1    -0.03  -0.07  -0.08    -0.08  -0.03  -0.02    -0.13  -0.01   0.01
  33   1    -0.00  -0.06   0.05    -0.02  -0.10  -0.04    -0.05  -0.08   0.09
  34   1     0.02   0.00   0.12     0.05  -0.03  -0.04     0.03  -0.04  -0.18
  35   1    -0.03  -0.12   0.06     0.08   0.02  -0.02     0.06   0.16  -0.09
  36   1     0.03  -0.00  -0.09     0.01   0.04   0.11    -0.02   0.02   0.09
  37   1     0.08  -0.06  -0.02    -0.05   0.10   0.03    -0.09   0.06   0.02
  38   1    -0.09   0.09   0.00    -0.04   0.02   0.01     0.02  -0.01   0.02
  39   1     0.00   0.00   0.10     0.06   0.04   0.03     0.04   0.02  -0.00
  40   1    -0.02  -0.01  -0.16     0.02  -0.01  -0.19     0.03  -0.01  -0.04
  41   1     0.06  -0.12  -0.07     0.12  -0.14  -0.08     0.06  -0.04  -0.01
  42   1     0.01  -0.02   0.07     0.02   0.03   0.07     0.00   0.03  -0.02
  43   1     0.06   0.05   0.02     0.08   0.05   0.02    -0.02   0.01  -0.00
  44   1    -0.02  -0.01   0.03    -0.11  -0.02   0.02    -0.12  -0.01  -0.02
  45   1    -0.00  -0.04   0.04    -0.05  -0.11   0.06    -0.06  -0.09   0.07
  46   1    -0.00   0.02   0.05    -0.02  -0.00   0.02     0.04   0.05  -0.03
  47   1    -0.00   0.02   0.06    -0.02   0.02   0.08     0.07  -0.00   0.05
  48   1     0.01   0.10  -0.03     0.12   0.14  -0.05    -0.22  -0.07   0.01
  49   1    -0.01   0.01  -0.08    -0.05  -0.01  -0.17     0.12   0.00   0.14
  50   1    -0.01   0.02  -0.02    -0.02  -0.01   0.07     0.06   0.06  -0.22
                     16                     17                     18
                        a                      a                      a 
 Frequencies --   225.9090               265.6840               256.4303
 Red. masses --    99.0000                99.0000                99.0000
 Frc consts  --    99.0000                99.0000                99.0000
 IR Inten    --    99.0000                99.0000                99.0000
 Raman Activ --     0.0000                 0.0000                 0.0000
 Depolar     --     0.0000                 0.0000                 0.0000
 Atom AN      X      Y      Z        X      Y      Z        X      Y      Z
   1   6     0.00   0.01  -0.06     0.01   0.11  -0.31    -0.01   0.01  -0.17
   2   6     0.08   0.09  -0.01     0.04  -0.11  -0.03     0.16   0.21  -0.07
   3   6     0.05   0.02  -0.01     0.13  -0.05  -0.02    -0.01   0.03  -0.04
   4   6    -0.13   0.02   0.02    -0.16   0.12   0.35    -0.15   0.05   0.08
   5   6    -0.08  -0.04  -0.04     0.02  -0.08   0.02    -0.03  -0.14   0.06
   6   6    -0.01  -0.01   0.03    -0.00  -0.12  -0.03     0.11  -0.11   0.14
   7   6     0.02   0.01   0.08     0.10   0.00   0.04     0.01  -0.20  -0.01
   8   6    -0.10  -0.12   0.12     0.06   0.02   0.03     0.18   0.13  -0.11
   9   6     0.06   0.04  -0.09     0.03   0.02  -0.01    -0.03  -0.06   0.05
  10   6     0.05   0.07  -0.10    -0.02   0.12   0.01    -0.07  -0.03   0.14
  11   6     0.07   0.11   0.01    -0.08   0.11  -0.04    -0.12  -0.10  -0.05
  12   6     0.02   0.08   0.19    -0.09   0.01   0.02    -0.12  -0.02  -0.12
  13   6     0.10  -0.01   0.07     0.02  -0.04   0.06    -0.10  -0.01  -0.09
  14   6    -0.08  -0.02  -0.16    -0.10  -0.08  -0.02     0.25   0.10   0.11
  15   6    -0.18  -0.13  -0.15     0.03  -0.02  -0.03    -0.05   0.01   0.14
  16   6     0.09  -0.10   0.08     0.02  -0.04  -0.02    -0.05   0.08  -0.04
  17   1    -0.06  -0.07  -0.01     0.11   0.35  -0.09    -0.08  -0.06  -0.04
  18   1     0.01   0.04  -0.10     0.03  -0.14   0.13     0.02   0.01  -0.14
  19   1     0.03   0.02   0.05    -0.14  -0.05  -0.37     0.00   0.02   0.02
  20   1     0.01   0.05  -0.01     0.02  -0.04   0.01     0.01   0.13  -0.06
  21   1     0.05   0.03   0.01    -0.03  -0.02   0.02     0.12   0.08   0.02
  22   1     0.03   0.04  -0.01     0.08   0.07  -0.04    -0.01   0.02  -0.04
  23   1     0.03  -0.03   0.01     0.08  -0.06  -0.04    -0.00  -0.01   0.03
  24   1    -0.03  -0.00   0.04     0.01   0.03   0.25    -0.01   0.02   0.09
  25   1    -0.07   0.02   0.01    -0.19   0.12   0.10    -0.10   0.06   0.02
  26   1    -0.04  -0.03  -0.03    -0.04  -0.07  -0.06    -0.04  -0.08  -0.00
  27   1    -0.00  -0.02  -0.01     0.11  -0.02  -0.00     0.02  -0.06   0.02
  28   1    -0.00   0.02   0.00    -0.05  -0.05  -0.00     0.09  -0.02   0.04
  29   1     0.00  -0.02   0.03     0.02  -0.06  -0.06     0.01  -0.02   0.10
  30   1     0.03   0.02   0.06     0.06  -0.00   0.02    -0.06  -0.10  -0.07
  31   1     0.01   0.02  -0.01     0.02   0.03   0.00     0.01  -0.12   0.07
  32   1    -0.10  -0.03   0.01     0.02   0.01   0.01     0.16   0.06   0.04
  33   1    -0.03  -0.09   0.09     0.01   0.02   0.01     0.05   0.13  -0.13
  34   1     0.06  -0.03  -0.06     0.01   0.00  -0.00    -0.05   0.02   0.04
  35   1     0.01   0.06  -0.04     0.01   0.01  -0.00     0.02  -0.05   0.03
  36   1     0.02   0.03  -0.04     0.02   0.04   0.03    -0.01  -0.01   0.09
  37   1     0.01  -0.00  -0.02    -0.02   0.05   0.00    -0.04   0.04   0.03
  38   1     0.06   0.04  -0.00    -0.02   0.02  -0.01    -0.05  -0.08  -0.01
  39   1     0.00   0.02  -0.01    -0.02   0.03  -0.02    -0.03  -0.01  -0.05
  40   1     0.01   0.00   0.11    -0.04  -0.01   0.01    -0.03   0.00  -0.04
  41   1    -0.04   0.07   0.06    -0.05   0.00   0.01    -0.02  -0.01  -0.04
  42   1     0.01   0.02   0.08    -0.01  -0.01   0.07    -0.01  -0.06  -0.09
  43   1     0.09  -0.06   0.02     0.05  -0.02   0.02    -0.09   0.04  -0.02
  44   1    -0.01  -0.00  -0.03    -0.07  -0.01  -0.03     0.18  -0.00   0.09
  45   1    -0.01  -0.02  -0.09    -0.04  -0.07   0.02     0.09   0.14  -0.02
  46   1    -0.06  -0.10  -0.05     0.02   0.01  -0.04    -0.04  -0.02   0.11
  47   1    -0.09  -0.02  -0.06     0.03  -0.01   0.01    -0.07   0.02   0.00
  48   1     0.43   0.08  -0.02    -0.06  -0.04   0.00     0.11   0.13  -0.03
  49   1    -0.19  -0.04  -0.26     0.04  -0.01   0.05    -0.10   0.00  -0.16
  50   1    -0.08  -0.12   0.41     0.02   0.01  -0.06    -0.05  -0.04   0.10
                     19                     20                     21
                        a                      a                      a 
 Frequencies --   220.4676               277.7543               310.1084
 Red. masses --    99.0000                99.0000                99.0000
 Frc consts  --    99.0000                99.0000                99.0000
 IR Inten    --    99.0000                99.0000                99.0000
 Raman Activ --     0.0000                 0.0000                 0.0000
 Depolar     --     0.0000                 0.0000                 0.0000
 Atom AN      X      Y      Z        X      Y      Z        X      Y      Z
   1   6     0.01   0.03  -0.14    -0.00   0.03  -0.02     0.00  -0.02  -0.08
   2   6     0.09   0.16  -0.12    -0.06  -0.12   0.03     0.06   0.08  -0.07
   3   6     0.01   0.12  -0.10     0.08  -0.01   0.01    -0.14   0.02  -0.03
   4   6    -0.10   0.18   0.07    -0.02   0.02   0.06     0.17   0.04   0.04
   5   6    -0.15   0.19   0.28    -0.02   0.05  -0.06     0.14   0.04   0.16
   6   6    -0.11  -0.01   0.05    -0.08   0.05  -0.06    -0.13  -0.24  -0.21
   7   6    -0.24  -0.21   0.03     0.03   0.13   0.08     0.12   0.02   0.18
   8   6    -0.03  -0.19   0.04    -0.16  -0.10   0.14     0.06   0.01   0.19
   9   6     0.08  -0.13  -0.01    -0.01   0.06  -0.22    -0.00   0.02  -0.15
  10   6     0.17  -0.24  -0.16    -0.02  -0.16   0.03    -0.10  -0.04   0.11
  11   6     0.13  -0.10   0.05     0.14  -0.19   0.11    -0.09  -0.10  -0.01
  12   6     0.09   0.07   0.14     0.16  -0.02  -0.02    -0.06  -0.12  -0.14
  13   6    -0.00   0.05  -0.05    -0.14   0.06  -0.22     0.03  -0.04   0.09
  14   6     0.03   0.09  -0.09     0.22   0.10   0.15     0.03   0.07  -0.11
  15   6     0.05   0.04  -0.08    -0.02  -0.02   0.18    -0.04   0.15  -0.10
  16   6    -0.01  -0.05   0.08    -0.06   0.07  -0.09    -0.01   0.08   0.17
  17   1    -0.00   0.02  -0.04     0.07   0.14  -0.01    -0.04  -0.06  -0.02
  18   1     0.02  -0.03  -0.04    -0.00  -0.05   0.11     0.01   0.01  -0.08
  19   1    -0.04   0.01  -0.04    -0.04  -0.03  -0.12     0.01   0.01   0.03
  20   1     0.01   0.09  -0.05    -0.00  -0.07   0.03     0.01   0.07  -0.06
  21   1     0.07   0.05  -0.02    -0.07  -0.04  -0.00     0.07   0.04  -0.00
  22   1     0.01   0.06  -0.05     0.05   0.03   0.01    -0.11  -0.07  -0.04
  23   1     0.01   0.02  -0.02     0.04  -0.03  -0.03    -0.10   0.09   0.03
  24   1    -0.05   0.02   0.03    -0.00  -0.00   0.04     0.05   0.03  -0.03
  25   1    -0.01   0.10   0.01    -0.03   0.01   0.02     0.09   0.02   0.00
  26   1    -0.03   0.05   0.17    -0.01   0.02  -0.04     0.06   0.02   0.11
  27   1    -0.11   0.11   0.07     0.02   0.01  -0.02     0.00   0.10   0.02
  28   1    -0.02  -0.05   0.03    -0.07   0.02  -0.02    -0.25  -0.16  -0.04
  29   1    -0.05   0.04  -0.00    -0.00  -0.01  -0.05     0.02  -0.10  -0.28
  30   1    -0.14  -0.06  -0.01     0.06   0.07   0.08     0.08   0.02   0.08
  31   1    -0.05  -0.12   0.06     0.00   0.09  -0.04    -0.00   0.08   0.05
  32   1    -0.02  -0.03   0.03    -0.15  -0.03  -0.00    -0.01   0.02   0.06
  33   1     0.01  -0.08  -0.02    -0.05  -0.09   0.13     0.00   0.02   0.08
  34   1     0.04  -0.04  -0.00    -0.00  -0.06  -0.19    -0.02  -0.05  -0.15
  35   1    -0.01  -0.03  -0.01     0.02   0.16  -0.10     0.03   0.12  -0.07
  36   1     0.03  -0.06  -0.13    -0.03  -0.07   0.01    -0.02  -0.02   0.09
  37   1     0.10  -0.14  -0.04    -0.05  -0.07   0.01    -0.09   0.03   0.03
  38   1     0.06   0.00   0.01     0.04  -0.06   0.03    -0.06  -0.05   0.00
  39   1     0.00  -0.06   0.03     0.04  -0.05   0.01    -0.01  -0.02  -0.01
  40   1     0.05   0.02   0.09     0.07   0.02  -0.02    -0.02  -0.01  -0.10
  41   1     0.01   0.07   0.04     0.09   0.02  -0.01     0.01  -0.10  -0.04
  42   1     0.01   0.03  -0.05     0.00   0.00  -0.24    -0.01  -0.03   0.10
  43   1    -0.03  -0.02  -0.01    -0.22   0.04  -0.05     0.09  -0.00   0.02
  44   1     0.01   0.02  -0.03     0.15   0.01   0.10     0.05  -0.01  -0.04
  45   1     0.01   0.03  -0.02     0.07   0.14   0.01     0.02   0.03  -0.06
  46   1     0.02   0.02  -0.03    -0.03  -0.02   0.12    -0.01   0.04  -0.03
  47   1     0.03  -0.01  -0.04    -0.06   0.01   0.02    -0.00   0.02  -0.05
  48   1    -0.12  -0.11   0.04     0.04   0.12  -0.04     0.03  -0.05   0.05
  49   1     0.07   0.01   0.15    -0.06  -0.00  -0.13    -0.01   0.05   0.09
  50   1     0.03   0.03  -0.09    -0.03  -0.03   0.02    -0.01   0.04   0.09
                     22                     23                     24
                        a                      a                      a 
 Frequencies --   296.7371               348.1822               399.1489
 Red. masses --    99.0000                99.0000                99.0000
 Frc consts  --    99.0000                99.0000                99.0000
 IR Inten    --    99.0000                99.0000                99.0000
 Raman Activ --     0.0000                 0.0000                 0.0000
 Depolar     --     0.0000                 0.0000                 0.0000
 Atom AN      X      Y      Z        X      Y      Z        X      Y      Z
   1   6    -0.00  -0.02  -0.00     0.01  -0.03  -0.27    -0.03   0.06   0.22
   2   6     0.02   0.06  -0.05     0.18   0.01   0.02    -0.17   0.17  -0.18
   3   6    -0.08   0.03  -0.02    -0.26  -0.13   0.11     0.19   0.03  -0.23
   4   6     0.11   0.02  -0.03     0.14  -0.06   0.18     0.01   0.05  -0.04
   5   6     0.06   0.06   0.11     0.18  -0.08   0.05     0.09  -0.16   0.09
   6   6    -0.08  -0.12  -0.13    -0.07  -0.04   0.03     0.00  -0.30  -0.03
   7   6     0.04  -0.03   0.11    -0.03   0.11  -0.14     0.10  -0.11   0.03
   8   6     0.13  -0.00   0.11    -0.22   0.06  -0.12    -0.14   0.06  -0.02
   9   6     0.14   0.04  -0.02    -0.21   0.05   0.16    -0.25   0.02   0.12
  10   6     0.10   0.16  -0.08    -0.05   0.01  -0.10    -0.16   0.11  -0.09
  11   6    -0.06   0.19  -0.09     0.17   0.02   0.07     0.14   0.06   0.04
  12   6    -0.17   0.15   0.17     0.20   0.02   0.08     0.18  -0.04   0.08
  13   6    -0.14  -0.04  -0.10     0.03   0.06  -0.06     0.01   0.00  -0.06
  14   6    -0.06  -0.18   0.20    -0.01   0.01   0.02    -0.01  -0.01   0.00
  15   6     0.08  -0.25   0.19     0.00  -0.02   0.02    -0.02   0.02   0.01
  16   6     0.01  -0.13  -0.30     0.00  -0.01  -0.03    -0.01   0.03   0.03
  17   1    -0.03  -0.08   0.00    -0.11   0.01  -0.06     0.12  -0.06   0.05
  18   1    -0.00   0.02  -0.06     0.03  -0.02  -0.17    -0.04   0.03   0.14
  19   1     0.02   0.01   0.06     0.02  -0.01  -0.09    -0.04   0.04   0.15
  20   1    -0.00   0.04  -0.03     0.03   0.06  -0.06    -0.05   0.06  -0.05
  21   1     0.03   0.02  -0.01     0.11   0.03   0.06    -0.02   0.05  -0.05
  22   1    -0.06  -0.04  -0.02    -0.21  -0.17  -0.05     0.17   0.11   0.02
  23   1    -0.06   0.05   0.01    -0.19   0.11   0.13     0.15  -0.10  -0.16
  24   1     0.02   0.01  -0.05     0.07   0.03   0.05     0.02  -0.00   0.05
  25   1     0.08   0.00  -0.01     0.02   0.00   0.05    -0.02   0.08  -0.02
  26   1     0.04   0.03   0.09     0.05  -0.00  -0.05     0.01  -0.07   0.03
  27   1    -0.03   0.07   0.02     0.11  -0.03   0.01     0.02  -0.03   0.02
  28   1    -0.14  -0.09  -0.02    -0.03  -0.03   0.02    -0.11  -0.14   0.00
  29   1     0.01  -0.04  -0.16    -0.02  -0.00  -0.02     0.03  -0.10  -0.13
  30   1     0.00  -0.01   0.03     0.07   0.03  -0.02     0.08  -0.05  -0.00
  31   1    -0.01   0.02   0.06    -0.01   0.07  -0.10     0.02  -0.00  -0.02
  32   1     0.02   0.01   0.04    -0.07  -0.01  -0.07    -0.02   0.01   0.00
  33   1     0.04  -0.01   0.03    -0.07  -0.01  -0.00    -0.06   0.05   0.01
  34   1     0.07  -0.00  -0.01    -0.04   0.08   0.17    -0.05   0.07   0.15
  35   1     0.03   0.03  -0.01    -0.11  -0.11   0.08    -0.12  -0.12   0.07
  36   1     0.06   0.07  -0.03    -0.06  -0.02  -0.09    -0.07   0.01  -0.03
  37   1     0.04   0.05  -0.02     0.04  -0.04  -0.02    -0.02   0.02  -0.02
  38   1     0.03   0.04  -0.03     0.06   0.04   0.02     0.06   0.04   0.01
  39   1    -0.05   0.04  -0.05     0.06   0.01   0.03     0.07   0.04   0.01
  40   1    -0.05  -0.01   0.15     0.07   0.01   0.03     0.05  -0.01   0.02
  41   1    -0.11   0.14   0.05     0.07   0.03   0.02     0.07   0.00   0.02
  42   1    -0.02  -0.02  -0.13     0.02   0.05  -0.07     0.02   0.03  -0.09
  43   1    -0.15  -0.01  -0.02    -0.05   0.01  -0.01    -0.07  -0.01  -0.01
  44   1    -0.06  -0.02   0.07    -0.02   0.02   0.01    -0.01  -0.00  -0.00
  45   1    -0.03  -0.05   0.11    -0.01  -0.00   0.01    -0.00  -0.01   0.00
  46   1     0.02  -0.05   0.05     0.00  -0.01   0.01    -0.01   0.01   0.00
  47   1     0.02  -0.04   0.09    -0.00  -0.00   0.01    -0.01   0.01   0.00
  48   1    -0.05   0.09  -0.09     0.00   0.01  -0.01    -0.00  -0.00   0.01
  49   1     0.01  -0.08  -0.16    -0.00  -0.01  -0.02    -0.00   0.01   0.01
  50   1     0.01  -0.08  -0.15    -0.00  -0.01  -0.01    -0.00   0.01   0.01
                     25                     26                     27
                        a                      a                      a 
 Frequencies --   413.2991               458.3433               498.3721
 Red. masses --    99.0000                99.0000                99.0000
 Frc consts  --    99.0000                99.0000                99.0000
 IR Inten    --    99.0000                99.0000                99.0000
 Raman Activ --     0.0000                 0.0000                 0.0000
 Depolar     --     0.0000                 0.0000                 0.0000
 Atom AN      X      Y      Z        X      Y      Z        X      Y      Z
   1   6    -0.01   0.01   0.03    -0.04   0.07   0.12     0.00  -0.00  -0.01
   2   6    -0.03   0.03  -0.03    -0.12   0.18  -0.21     0.00  -0.00   0.01
   3   6     0.03  -0.00  -0.04     0.02  -0.27  -0.18    -0.00   0.01   0.01
   4   6     0.01   0.00  -0.00     0.13  -0.11   0.17    -0.00   0.01  -0.01
   5   6     0.02  -0.03   0.01     0.13  -0.08   0.09     0.00  -0.01   0.00
   6   6    -0.01  -0.05  -0.00    -0.21   0.05   0.19    -0.00  -0.01   0.00
   7   6     0.02   0.00   0.01    -0.14   0.20  -0.13     0.00   0.00   0.00
   8   6    -0.05   0.04  -0.01    -0.02   0.02  -0.10    -0.01   0.02  -0.01
   9   6    -0.15  -0.05  -0.03     0.22   0.14   0.01    -0.06  -0.03  -0.02
  10   6    -0.11  -0.22   0.13     0.23  -0.11   0.06    -0.04  -0.12   0.08
  11   6    -0.06  -0.17   0.09    -0.09  -0.06  -0.03    -0.10  -0.03   0.04
  12   6    -0.02   0.31  -0.09    -0.14  -0.00  -0.05    -0.04   0.27  -0.09
  13   6     0.21   0.38   0.14    -0.04  -0.06   0.02     0.42  -0.05  -0.38
  14   6    -0.04   0.19   0.03     0.01  -0.02  -0.00     0.08  -0.33   0.03
  15   6     0.10  -0.22   0.01    -0.00   0.01  -0.00    -0.09   0.09   0.10
  16   6     0.07  -0.21  -0.25    -0.00   0.01   0.01    -0.06   0.17   0.17
  17   1     0.02  -0.01   0.01     0.09  -0.07   0.02    -0.01  -0.00  -0.00
  18   1    -0.01   0.00   0.02    -0.03   0.04   0.08     0.00   0.00  -0.01
  19   1    -0.01   0.01   0.02    -0.04   0.04   0.13     0.00   0.00  -0.00
  20   1    -0.01   0.01  -0.01    -0.06   0.14  -0.14     0.00  -0.00   0.01
  21   1    -0.00   0.01  -0.01     0.06   0.09   0.03    -0.00  -0.00  -0.00
  22   1     0.02   0.01   0.00     0.03  -0.07   0.00    -0.00   0.00  -0.00
  23   1     0.02  -0.02  -0.02     0.02  -0.08  -0.09     0.00   0.00   0.00
  24   1     0.01  -0.00   0.01     0.08  -0.04   0.17     0.00   0.01  -0.01
  25   1    -0.00   0.01  -0.00    -0.04   0.09   0.04     0.00  -0.00  -0.00
  26   1     0.00  -0.01  -0.00     0.04   0.03  -0.10    -0.00  -0.00  -0.00
  27   1     0.01  -0.01   0.00     0.12  -0.08   0.04    -0.00  -0.00   0.00
  28   1    -0.03  -0.02   0.00    -0.01   0.01   0.06    -0.01  -0.00   0.00
  29   1     0.00  -0.02  -0.03    -0.08   0.04   0.08     0.00  -0.00  -0.00
  30   1     0.02  -0.00   0.00     0.07   0.06  -0.02     0.00  -0.00  -0.00
  31   1     0.00   0.01  -0.01    -0.06   0.13  -0.09     0.00   0.00   0.00
  32   1     0.01   0.01   0.00    -0.08  -0.01  -0.08     0.00   0.00   0.00
  33   1    -0.02   0.04  -0.00     0.02  -0.10  -0.01    -0.01   0.02  -0.00
  34   1    -0.08  -0.02  -0.05     0.04   0.01  -0.06    -0.04  -0.02  -0.03
  35   1    -0.02   0.02  -0.02     0.10   0.09  -0.01    -0.00   0.02  -0.01
  36   1    -0.05  -0.08   0.04     0.05  -0.03  -0.04    -0.02  -0.03   0.01
  37   1    -0.06  -0.07   0.04     0.11  -0.06   0.02    -0.01  -0.05   0.02
  38   1    -0.04  -0.08   0.03    -0.05  -0.03  -0.00    -0.05  -0.04   0.02
  39   1    -0.07  -0.07   0.00    -0.06  -0.04   0.00    -0.08  -0.04   0.01
  40   1     0.03   0.12  -0.03    -0.04  -0.01  -0.00    -0.04  -0.03   0.17
  41   1     0.01   0.08  -0.03    -0.06  -0.00  -0.01    -0.06   0.28  -0.02
  42   1     0.01   0.09   0.23    -0.02  -0.04   0.03     0.12  -0.07  -0.12
  43   1     0.26   0.12   0.03     0.02  -0.01   0.00     0.09   0.04  -0.11
  44   1    -0.07   0.11   0.05     0.02  -0.02  -0.00    -0.16  -0.00  -0.02
  45   1    -0.02  -0.01   0.03     0.01   0.00  -0.01     0.01  -0.29   0.04
  46   1     0.03  -0.07  -0.01    -0.00   0.01   0.00    -0.04   0.04   0.07
  47   1     0.03  -0.07  -0.01     0.00   0.00   0.00    -0.04   0.06   0.07
  48   1    -0.01   0.04  -0.08     0.00  -0.00   0.00     0.01  -0.00   0.05
  49   1     0.02  -0.09  -0.13    -0.00   0.00   0.01    -0.02   0.06   0.07
  50   1     0.03  -0.10  -0.12    -0.00   0.01   0.01    -0.02   0.08   0.09
                     28                     29                     30
                        a                      a                      a 
 Frequencies --   531.6171               507.2354               748.4529
 Red. masses --    99.0000                99.0000                99.0000
 Frc consts  --    99.0000                99.0000                99.0000
 IR Inten    --    99.0000                99.0000                99.0000
 Raman Activ --     0.0000                 0.0000                 0.0000
 Depolar     --     0.0000                 0.0000                 0.0000
 Atom AN      X      Y      Z        X      Y      Z        X      Y      Z
   1   6     0.02  -0.02  -0.01    -0.03   0.05   0.05     0.03  -0.03  -0.01
   2   6     0.04   0.00   0.02    -0.08   0.06  -0.11    -0.04  -0.06  -0.00
   3   6     0.04   0.20   0.01    -0.06  -0.37  -0.07    -0.10  -0.06   0.04
   4   6     0.04   0.09  -0.09     0.03  -0.16   0.20    -0.11   0.04   0.05
   5   6     0.06  -0.15   0.10    -0.06   0.22  -0.04     0.00   0.07   0.11
   6   6    -0.35  -0.03   0.31     0.10   0.24  -0.12     0.04   0.13   0.08
   7   6    -0.13   0.19  -0.01     0.04   0.05   0.07     0.09   0.08   0.04
   8   6     0.21  -0.11  -0.02     0.18  -0.10   0.09     0.04   0.07  -0.09
   9   6    -0.00  -0.36  -0.17    -0.11  -0.33  -0.14     0.07  -0.01  -0.11
  10   6    -0.12   0.04  -0.09    -0.20   0.08  -0.08     0.02  -0.04  -0.06
  11   6     0.04   0.07  -0.01     0.05   0.08   0.01     0.02  -0.06  -0.00
  12   6     0.07  -0.00   0.04     0.11   0.01   0.04    -0.01  -0.01  -0.02
  13   6     0.02   0.02  -0.01     0.05   0.04  -0.03    -0.01  -0.01  -0.02
  14   6    -0.01   0.01   0.00    -0.01   0.00   0.00    -0.01   0.01  -0.00
  15   6    -0.00  -0.00  -0.00    -0.00  -0.00   0.00     0.00  -0.00   0.01
  16   6     0.00  -0.00  -0.00    -0.00   0.00   0.00     0.00   0.00   0.00
  17   1    -0.01   0.00  -0.00     0.05  -0.03   0.01     0.00   0.02  -0.00
  18   1     0.01  -0.02  -0.02    -0.03   0.04   0.04    -0.03   0.06   0.01
  19   1    -0.00  -0.01  -0.02    -0.01   0.03   0.07     0.09  -0.01  -0.05
  20   1     0.02  -0.05   0.06    -0.05   0.11  -0.13    -0.06   0.11  -0.10
  21   1    -0.04  -0.02  -0.05     0.07   0.07   0.08     0.14   0.02   0.05
  22   1     0.02   0.07  -0.00    -0.03  -0.14   0.00     0.07   0.11   0.04
  23   1     0.02   0.04   0.00    -0.04  -0.06  -0.03     0.06  -0.12  -0.07
  24   1     0.01   0.06  -0.11     0.02  -0.10   0.17    -0.14  -0.03  -0.21
  25   1     0.09  -0.00  -0.03    -0.08   0.04   0.06     0.21  -0.07  -0.00
  26   1    -0.00  -0.01  -0.14     0.02   0.09   0.05    -0.11  -0.04  -0.23
  27   1     0.12  -0.18   0.06    -0.04   0.13  -0.03     0.25  -0.11   0.05
  28   1    -0.07  -0.03   0.09     0.07   0.10  -0.04    -0.17  -0.07   0.05
  29   1    -0.11   0.02   0.08     0.02   0.06   0.03     0.08  -0.02  -0.18
  30   1     0.12   0.07   0.05    -0.08   0.05   0.04    -0.20  -0.06  -0.14
  31   1    -0.10   0.21  -0.06     0.02  -0.03   0.07     0.05  -0.16   0.22
  32   1     0.21  -0.06   0.02     0.16  -0.04   0.06    -0.19  -0.03  -0.17
  33   1     0.05   0.08  -0.10     0.02   0.10  -0.02    -0.01  -0.13   0.19
  34   1     0.03  -0.12  -0.05     0.01  -0.10  -0.02     0.00   0.09   0.11
  35   1    -0.02  -0.08  -0.06    -0.07  -0.08  -0.04    -0.05  -0.15   0.01
  36   1     0.05   0.04   0.10     0.01   0.04   0.10     0.03  -0.04   0.18
  37   1    -0.15   0.09  -0.03    -0.17   0.09  -0.03    -0.13   0.12  -0.03
  38   1     0.03   0.06  -0.01     0.04   0.05  -0.00    -0.06   0.11  -0.01
  39   1     0.04   0.03   0.02     0.05   0.05   0.00     0.00  -0.06   0.14
  40   1     0.02   0.00   0.00     0.03   0.00   0.01     0.02  -0.01   0.05
  41   1     0.02  -0.00   0.01     0.04   0.01   0.01    -0.04   0.05  -0.00
  42   1     0.01   0.02  -0.03     0.02   0.03  -0.04    -0.01  -0.00   0.03
  43   1    -0.02  -0.00  -0.00    -0.02   0.00  -0.01     0.03   0.01  -0.01
  44   1    -0.01   0.01  -0.00    -0.02   0.01   0.00     0.02  -0.00   0.01
  45   1    -0.00  -0.00   0.00    -0.00  -0.02   0.01     0.00   0.02  -0.01
  46   1    -0.00  -0.00  -0.00    -0.00  -0.00   0.00     0.00   0.00  -0.00
  47   1    -0.00  -0.00  -0.00    -0.00   0.00   0.00     0.00   0.00   0.01
  48   1    -0.00   0.00  -0.00     0.00   0.00   0.00    -0.00   0.00   0.00
  49   1     0.00  -0.00  -0.00     0.00  -0.00  -0.00    -0.00  -0.00  -0.00
  50   1     0.00  -0.00  -0.00    -0.00   0.00   0.00     0.00  -0.00  -0.00
                     31                     32                     33
                        a                      a                      a 
 Frequencies --   754.9903               763.6826               783.9927
 Red. masses --    99.0000                99.0000                99.0000
 Frc consts  --    99.0000                99.0000                99.0000
 IR Inten    --    99.0000                99.0000                99.0000
 Raman Activ --     0.0000                 0.0000                 0.0000
 Depolar     --     0.0000                 0.0000                 0.0000
 Atom AN      X      Y      Z        X      Y      Z        X      Y      Z
   1   6    -0.02   0.01   0.01     0.04  -0.04  -0.01     0.02  -0.04  -0.01
   2   6     0.03   0.04   0.00    -0.06  -0.11   0.01    -0.06  -0.10   0.02
   3   6     0.06   0.03  -0.02    -0.13  -0.04   0.05    -0.09   0.01   0.04
   4   6     0.05  -0.02  -0.03    -0.08   0.06   0.08     0.00   0.06   0.04
   5   6    -0.01  -0.03  -0.05     0.04   0.05   0.05     0.07  -0.03  -0.06
   6   6    -0.03  -0.05  -0.01     0.06   0.01  -0.06    -0.01  -0.09  -0.09
   7   6    -0.02  -0.02   0.02    -0.04  -0.05  -0.05    -0.08  -0.09   0.01
   8   6    -0.01   0.02   0.01    -0.08  -0.09   0.05    -0.04   0.00   0.06
   9   6     0.03   0.03  -0.03    -0.08  -0.01   0.12     0.02   0.08   0.01
  10   6     0.03  -0.03  -0.05    -0.03   0.07   0.08     0.05  -0.04  -0.05
  11   6     0.10  -0.08  -0.04     0.04   0.05  -0.00     0.03  -0.09  -0.09
  12   6     0.03  -0.05  -0.13     0.04  -0.02  -0.06    -0.02  -0.07  -0.02
  13   6    -0.09  -0.05  -0.13    -0.04  -0.04  -0.07    -0.01   0.02   0.04
  14   6    -0.13  -0.03  -0.01    -0.09  -0.04  -0.00     0.06   0.10  -0.00
  15   6    -0.05  -0.05   0.08    -0.05  -0.04   0.04     0.12   0.05  -0.02
  16   6    -0.01   0.02   0.02    -0.01   0.01   0.01     0.02  -0.01  -0.01
  17   1     0.00  -0.01   0.00     0.00   0.04  -0.00    -0.01   0.05   0.00
  18   1     0.01  -0.03  -0.00    -0.05   0.09   0.01    -0.05   0.09   0.01
  19   1    -0.06   0.01   0.02     0.14  -0.02  -0.07     0.14  -0.02  -0.08
  20   1     0.03  -0.06   0.06    -0.09   0.16  -0.13    -0.08   0.14  -0.10
  21   1    -0.08  -0.01  -0.03     0.21   0.02   0.07     0.19   0.01   0.05
  22   1    -0.04  -0.06  -0.02     0.09   0.15   0.05     0.07   0.12   0.04
  23   1    -0.03   0.07   0.04     0.07  -0.14  -0.11     0.05  -0.08  -0.09
  24   1     0.07   0.00   0.11    -0.09   0.03  -0.20     0.02   0.09  -0.06
  25   1    -0.11   0.04   0.00     0.19  -0.08   0.01     0.03  -0.03   0.01
  26   1     0.05   0.02   0.09    -0.05  -0.04  -0.07     0.05  -0.01   0.11
  27   1    -0.11   0.04  -0.02     0.14   0.02  -0.00    -0.06   0.12  -0.04
  28   1     0.05   0.03  -0.01     0.03  -0.01  -0.01     0.15   0.07  -0.05
  29   1    -0.03   0.00   0.06     0.01   0.02  -0.01    -0.07   0.04   0.13
  30   1     0.04   0.00   0.02     0.07   0.05   0.08     0.15   0.03   0.11
  31   1    -0.03   0.05  -0.01     0.01   0.03  -0.16    -0.06   0.14  -0.13
  32   1    -0.04   0.03   0.01     0.20  -0.01   0.13     0.02   0.07   0.11
  33   1     0.00  -0.03   0.02    -0.01   0.13  -0.18     0.01   0.02  -0.08
  34   1     0.01   0.05   0.06     0.00  -0.12  -0.14     0.01   0.04   0.04
  35   1    -0.04  -0.06   0.01     0.08   0.18  -0.01    -0.03  -0.01   0.01
  36   1    -0.00  -0.06   0.17    -0.04   0.04  -0.19    -0.01  -0.07   0.17
  37   1    -0.09   0.15  -0.03     0.15  -0.13   0.04    -0.06   0.16  -0.03
  38   1    -0.17   0.22  -0.02     0.00  -0.06   0.01    -0.14   0.21  -0.04
  39   1     0.12  -0.05   0.29     0.08   0.08  -0.06     0.04  -0.08   0.24
  40   1     0.11  -0.07   0.26     0.03  -0.04   0.09     0.06  -0.01   0.09
  41   1    -0.17   0.25  -0.02    -0.03   0.10  -0.01    -0.13   0.03   0.00
  42   1    -0.08   0.02   0.19    -0.04   0.02   0.10     0.00  -0.01  -0.02
  43   1     0.21   0.03  -0.05     0.11   0.01  -0.03    -0.04  -0.00   0.01
  44   1     0.21  -0.06   0.15     0.14  -0.05   0.10    -0.15   0.05  -0.13
  45   1     0.01   0.24  -0.14     0.01   0.16  -0.10    -0.03  -0.12   0.15
  46   1     0.05   0.14  -0.13     0.03   0.12  -0.11    -0.04  -0.21   0.16
  47   1     0.16  -0.04   0.17     0.13  -0.04   0.12    -0.21   0.09  -0.16
  48   1     0.00   0.04   0.00     0.01   0.02   0.00    -0.04  -0.01   0.00
  49   1     0.05  -0.04  -0.02     0.05  -0.04  -0.01    -0.10   0.08   0.02
  50   1     0.01   0.07  -0.01     0.00   0.07   0.00    -0.00  -0.14  -0.02
                     34                     35                     36
                        a                      a                      a 
 Frequencies --   802.1697               831.7074               839.3174
 Red. masses --    99.0000                99.0000                99.0000
 Frc consts  --    99.0000                99.0000                99.0000
 IR Inten    --    99.0000                99.0000                99.0000
 Raman Activ --     0.0000                 0.0000                 0.0000
 Depolar     --     0.0000                 0.0000                 0.0000
 Atom AN      X      Y      Z        X      Y      Z        X      Y      Z
   1   6    -0.01   0.04  -0.01     0.04   0.02  -0.06     0.07  -0.01  -0.11
   2   6     0.04   0.11  -0.05    -0.01   0.12  -0.13    -0.08   0.12  -0.20
   3   6     0.07  -0.04  -0.02     0.01  -0.00   0.06    -0.01   0.10   0.13
   4   6    -0.03  -0.05   0.03    -0.02  -0.05   0.18     0.07  -0.06   0.30
   5   6    -0.07   0.06   0.08    -0.06   0.06   0.03    -0.10   0.04  -0.05
   6   6     0.08   0.08   0.04     0.06  -0.01  -0.08    -0.09  -0.11  -0.12
   7   6     0.05   0.03  -0.06    -0.01  -0.07  -0.02     0.01  -0.10   0.03
   8   6    -0.07  -0.07  -0.01    -0.10  -0.01   0.04     0.12   0.00   0.05
   9   6    -0.06  -0.03   0.12    -0.03   0.05   0.07     0.05   0.09  -0.10
  10   6    -0.03   0.07   0.07     0.08  -0.09  -0.00    -0.06   0.04  -0.05
  11   6     0.05   0.00  -0.07    -0.03  -0.04  -0.15     0.01  -0.01   0.15
  12   6     0.05  -0.15  -0.07    -0.02   0.05   0.05    -0.03   0.03  -0.02
  13   6    -0.06  -0.03  -0.05     0.11   0.08   0.17    -0.08  -0.06  -0.12
  14   6    -0.03   0.10  -0.02     0.09   0.00   0.06    -0.04  -0.03  -0.04
  15   6     0.14   0.05   0.03    -0.14  -0.01  -0.10     0.07  -0.00   0.06
  16   6     0.03   0.01   0.01    -0.03  -0.07  -0.04     0.01   0.05   0.03
  17   1     0.02  -0.07  -0.01     0.06  -0.11  -0.03     0.12  -0.12  -0.05
  18   1     0.06  -0.10  -0.02     0.07  -0.11  -0.02     0.05  -0.08   0.01
  19   1    -0.15   0.03   0.09    -0.15   0.03   0.10    -0.11   0.02   0.09
  20   1     0.08  -0.15   0.07     0.07  -0.13   0.01     0.04  -0.09  -0.03
  21   1    -0.19   0.00  -0.04    -0.19   0.01  -0.05    -0.15   0.01  -0.07
  22   1    -0.05  -0.10  -0.03    -0.00  -0.01   0.01     0.02   0.04   0.05
  23   1    -0.04   0.06   0.08    -0.00   0.00   0.03     0.01   0.03  -0.01
  24   1    -0.08  -0.11  -0.02    -0.10  -0.07  -0.12    -0.09  -0.04  -0.15
  25   1     0.05  -0.00  -0.00     0.18  -0.09   0.04     0.24  -0.15   0.07
  26   1    -0.09  -0.02  -0.15    -0.09  -0.05  -0.11    -0.07  -0.03  -0.07
  27   1     0.13  -0.10   0.04     0.15   0.01  -0.01     0.12   0.10  -0.05
  28   1    -0.11  -0.08   0.04     0.05   0.01  -0.02     0.20   0.10  -0.07
  29   1     0.08  -0.03  -0.14     0.01  -0.01   0.01    -0.09   0.00   0.22
  30   1    -0.07   0.01  -0.03     0.06   0.03   0.07     0.08  -0.01   0.05
  31   1     0.07  -0.10  -0.02     0.01   0.02  -0.11    -0.05   0.08  -0.00
  32   1     0.12  -0.06   0.01     0.07   0.03   0.10    -0.08   0.04   0.02
  33   1    -0.02   0.07  -0.08    -0.01   0.07  -0.10     0.04  -0.06   0.07
  34   1     0.00  -0.12  -0.13    -0.02  -0.02  -0.04     0.02   0.12   0.13
  35   1     0.09   0.16  -0.01     0.01   0.07   0.00    -0.08  -0.13   0.01
  36   1    -0.05   0.02  -0.10    -0.01  -0.08   0.15    -0.00   0.03  -0.04
  37   1     0.13  -0.04   0.03     0.00   0.15  -0.02    -0.08  -0.07  -0.01
  38   1    -0.12   0.08  -0.02    -0.10   0.17  -0.05     0.10  -0.13   0.05
  39   1     0.14   0.05   0.10    -0.03  -0.09   0.17    -0.03   0.02  -0.12
  40   1     0.09  -0.07   0.19     0.02   0.05  -0.03    -0.05  -0.01  -0.04
  41   1    -0.14   0.13  -0.01    -0.08  -0.11   0.02     0.10   0.04  -0.01
  42   1    -0.04   0.02   0.09     0.09  -0.01  -0.22    -0.06  -0.01   0.15
  43   1     0.10   0.00  -0.02    -0.24   0.01   0.06     0.16  -0.01  -0.04
  44   1    -0.07   0.02  -0.09    -0.04   0.04   0.02     0.04  -0.03  -0.00
  45   1    -0.05   0.02   0.13     0.04  -0.12  -0.05    -0.02   0.07   0.02
  46   1    -0.03  -0.23   0.15     0.00   0.19  -0.09     0.00  -0.09   0.04
  47   1    -0.20   0.11  -0.11     0.14  -0.10   0.01    -0.06   0.05   0.01
  48   1    -0.07   0.01   0.01     0.09  -0.05  -0.02    -0.05   0.03   0.01
  49   1    -0.12   0.10   0.02     0.12  -0.11  -0.03    -0.06   0.06   0.01
  50   1     0.00  -0.18  -0.04    -0.00   0.17   0.05     0.00  -0.08  -0.02
                     37                     38                     39
                        a                      a                      a 
 Frequencies --   871.7045               888.1517               905.6610
 Red. masses --    99.0000                99.0000                99.0000
 Frc consts  --    99.0000                99.0000                99.0000
 IR Inten    --    99.0000                99.0000                99.0000
 Raman Activ --     0.0000                 0.0000                 0.0000
 Depolar     --     0.0000                 0.0000                 0.0000
 Atom AN      X      Y      Z        X      Y      Z        X      Y      Z
   1   6    -0.13  -0.04   0.01    -0.01   0.06   0.09    -0.05  -0.02  -0.02
   2   6    -0.03  -0.10  -0.02     0.08  -0.01   0.10    -0.00  -0.01  -0.03
   3   6     0.28   0.10  -0.07    -0.06  -0.14  -0.10     0.10   0.05  -0.01
   4   6     0.17   0.05   0.07    -0.07   0.06  -0.08    -0.01  -0.01   0.02
   5   6    -0.27   0.13  -0.09     0.05   0.07   0.04    -0.02  -0.09   0.06
   6   6    -0.14  -0.13   0.06    -0.00   0.04  -0.00     0.11  -0.04  -0.08
   7   6     0.12  -0.12   0.01    -0.02  -0.09   0.04    -0.08   0.11  -0.15
   8   6     0.08  -0.02  -0.02     0.09  -0.06  -0.01    -0.07   0.03   0.12
   9   6    -0.01   0.04   0.03     0.11   0.12  -0.06    -0.07  -0.01   0.15
  10   6    -0.09   0.03   0.03    -0.10   0.07  -0.04     0.12  -0.10  -0.10
  11   6    -0.05  -0.01  -0.04    -0.09  -0.07   0.05     0.05   0.03  -0.02
  12   6     0.03  -0.10  -0.00    -0.03  -0.26   0.06    -0.08   0.09   0.15
  13   6     0.08   0.03   0.02     0.14  -0.02  -0.15    -0.01  -0.10  -0.17
  14   6     0.01   0.09   0.01     0.01   0.35  -0.15    -0.05   0.06  -0.23
  15   6    -0.03  -0.00  -0.00    -0.02  -0.08   0.17     0.06  -0.10   0.21
  16   6    -0.01  -0.03  -0.00    -0.07  -0.01   0.12    -0.03   0.10   0.17
  17   1     0.09   0.06  -0.01    -0.12   0.02   0.04     0.06   0.00  -0.01
  18   1    -0.18   0.20   0.15     0.07  -0.08  -0.08    -0.07   0.07   0.07
  19   1     0.19  -0.01  -0.05    -0.09   0.01   0.00     0.06   0.00  -0.00
  20   1    -0.14   0.18   0.09     0.07  -0.07  -0.02    -0.05   0.05   0.06
  21   1     0.19  -0.01  -0.02    -0.05   0.00   0.06     0.04  -0.01  -0.03
  22   1    -0.14  -0.21  -0.12     0.02   0.01  -0.02    -0.05  -0.06  -0.05
  23   1    -0.12   0.31   0.07     0.02  -0.09  -0.03    -0.03   0.09   0.06
  24   1    -0.04  -0.13   0.02    -0.02   0.01  -0.02    -0.03  -0.04  -0.00
  25   1     0.08   0.02   0.01     0.01   0.07  -0.04     0.02  -0.00   0.00
  26   1    -0.12   0.02  -0.17    -0.01   0.01  -0.04    -0.04  -0.08   0.01
  27   1     0.09  -0.01  -0.03     0.05  -0.01   0.01     0.02  -0.03   0.02
  28   1     0.05   0.00   0.01    -0.00  -0.01   0.00     0.06  -0.05  -0.01
  29   1    -0.03  -0.08   0.13    -0.02   0.06  -0.03     0.03  -0.02  -0.01
  30   1     0.07  -0.07  -0.03     0.08   0.02   0.08    -0.10   0.03  -0.06
  31   1     0.01  -0.01   0.03    -0.02   0.06  -0.07    -0.01  -0.03   0.00
  32   1    -0.04  -0.01  -0.04    -0.02   0.04   0.05     0.07  -0.04   0.01
  33   1     0.01  -0.04   0.06     0.06  -0.07  -0.04    -0.02   0.06  -0.01
  34   1    -0.02   0.01  -0.01     0.04   0.10   0.10     0.00  -0.10  -0.11
  35   1     0.03   0.01   0.01    -0.01  -0.09   0.02    -0.04   0.18  -0.01
  36   1    -0.05   0.01  -0.08    -0.03   0.03  -0.08     0.03  -0.08   0.20
  37   1     0.04  -0.05   0.02    -0.03  -0.07  -0.00    -0.02   0.21  -0.05
  38   1    -0.08  -0.01  -0.01    -0.03  -0.07   0.02     0.18   0.14  -0.03
  39   1     0.05   0.03   0.02     0.02   0.02  -0.03    -0.13  -0.09   0.02
  40   1     0.03  -0.04   0.08    -0.03  -0.11   0.08    -0.12   0.04  -0.18
  41   1    -0.08   0.01   0.01    -0.05  -0.03   0.02     0.18  -0.13   0.02
  42   1     0.04   0.02  -0.07     0.03  -0.01  -0.02    -0.03  -0.03   0.08
  43   1    -0.06   0.01   0.01     0.07  -0.08  -0.04     0.13  -0.16  -0.05
  44   1    -0.05   0.05  -0.01    -0.19   0.18  -0.08    -0.02   0.03  -0.05
  45   1    -0.00  -0.03   0.01    -0.04  -0.07   0.08    -0.02   0.02  -0.03
  46   1    -0.00   0.04  -0.01     0.01   0.10   0.05     0.02  -0.03   0.03
  47   1     0.03  -0.04  -0.02     0.10  -0.17  -0.07     0.03  -0.06   0.02
  48   1     0.02   0.02  -0.00    -0.02   0.25   0.01    -0.10   0.26   0.03
  49   1     0.04  -0.05  -0.03     0.14  -0.20  -0.14     0.01  -0.06  -0.09
  50   1     0.00   0.04   0.00     0.02   0.13  -0.05     0.02  -0.02  -0.08
                     40                     41                     42
                        a                      a                      a 
 Frequencies --   858.1806              1512.1105              1505.9859
 Red. masses --    99.0000                99.0000                99.0000
 Frc consts  --    99.0000                99.0000                99.0000
 IR Inten    --    99.0000                99.0000                99.0000
 Raman Activ --     0.0000                 0.0000                 0.0000
 Depolar     --     0.0000                 0.0000                 0.0000
 Atom AN      X      Y      Z        X      Y      Z        X      Y      Z
   1   6    -0.07   0.03   0.06    -0.05  -0.12   0.04     0.01  -0.04   0.05
   2   6     0.05  -0.04   0.07     0.02  -0.04   0.03    -0.01   0.00   0.01
   3   6     0.09  -0.11  -0.09    -0.00  -0.04  -0.03    -0.00   0.02   0.00
   4   6    -0.03   0.05  -0.08     0.00   0.01  -0.01    -0.00   0.00  -0.01
   5   6    -0.08   0.19  -0.03    -0.05   0.02  -0.05     0.03  -0.01   0.03
   6   6     0.03   0.10   0.12    -0.02  -0.00   0.02     0.00  -0.00   0.00
   7   6     0.05  -0.21   0.19     0.05  -0.02   0.06     0.02  -0.00   0.05
   8   6    -0.24  -0.02  -0.12     0.03  -0.03   0.03    -0.03   0.02  -0.06
   9   6     0.06   0.02  -0.16     0.00   0.01   0.01    -0.01  -0.02  -0.01
  10   6     0.18  -0.03  -0.02    -0.03   0.03  -0.04     0.01  -0.01   0.01
  11   6     0.06  -0.02   0.09    -0.03   0.02  -0.02    -0.01   0.00  -0.00
  12   6    -0.08   0.14  -0.02    -0.00   0.01  -0.00     0.05  -0.06   0.05
  13   6    -0.10  -0.05  -0.01     0.00   0.00  -0.01     0.03   0.00  -0.02
  14   6     0.01  -0.12  -0.01    -0.04   0.07  -0.06    -0.04   0.06  -0.07
  15   6     0.03   0.01  -0.00     0.00   0.01  -0.02    -0.03  -0.01   0.05
  16   6     0.01   0.03   0.00     0.01   0.03  -0.08    -0.11  -0.08   0.07
  17   1    -0.04   0.03   0.02     0.26   0.34  -0.01     0.13   0.04  -0.01
  18   1    -0.02   0.02   0.01     0.03   0.11  -0.34    -0.03   0.16  -0.17
  19   1     0.00   0.00  -0.00    -0.10   0.04   0.21    -0.15  -0.02  -0.04
  20   1    -0.00   0.01   0.04    -0.04   0.08  -0.05     0.01  -0.03   0.01
  21   1     0.03  -0.00   0.04    -0.07  -0.03  -0.05     0.03   0.00   0.00
  22   1    -0.06  -0.12  -0.06     0.08   0.08   0.04    -0.03  -0.02  -0.02
  23   1    -0.05   0.06   0.04    -0.07   0.08   0.07     0.02  -0.03  -0.02
  24   1    -0.05  -0.07   0.01    -0.01  -0.02   0.00     0.00  -0.01   0.02
  25   1    -0.00   0.06  -0.03    -0.00  -0.01   0.00     0.01  -0.01   0.00
  26   1    -0.07   0.03  -0.14     0.06   0.02   0.17    -0.03  -0.01  -0.09
  27   1     0.08  -0.04   0.01     0.15  -0.10   0.02    -0.08   0.06  -0.01
  28   1    -0.18  -0.02   0.04     0.06   0.03  -0.01     0.01  -0.00   0.00
  29   1     0.06  -0.01  -0.14     0.02  -0.01  -0.06     0.00  -0.00  -0.01
  30   1     0.19   0.04   0.21    -0.18  -0.04  -0.10    -0.10  -0.03  -0.06
  31   1     0.07   0.02  -0.23    -0.03   0.15  -0.15    -0.01   0.08  -0.10
  32   1     0.07   0.13   0.19    -0.10   0.01  -0.03     0.16   0.02   0.09
  33   1    -0.03   0.12  -0.25    -0.01   0.08  -0.07    -0.00  -0.12   0.14
  34   1     0.03   0.11   0.14     0.00  -0.02  -0.03    -0.00   0.03   0.05
  35   1    -0.03  -0.20   0.01    -0.01  -0.03   0.01     0.02   0.06  -0.02
  36   1     0.07  -0.02   0.11     0.02  -0.02   0.14    -0.01  -0.00  -0.03
  37   1    -0.06   0.05  -0.01     0.09  -0.11   0.01    -0.01   0.03  -0.00
  38   1     0.08  -0.03   0.02     0.06  -0.07   0.00     0.02  -0.02   0.00
  39   1    -0.07  -0.04  -0.03     0.04   0.00   0.08     0.01   0.00   0.02
  40   1    -0.06   0.06  -0.11     0.00  -0.00   0.01    -0.05   0.05  -0.19
  41   1     0.09  -0.01  -0.01     0.00  -0.01   0.00    -0.13   0.16   0.01
  42   1    -0.05  -0.04   0.08    -0.01   0.01   0.02    -0.02  -0.01   0.08
  43   1     0.06  -0.01  -0.01    -0.02   0.00  -0.00    -0.08   0.00   0.00
  44   1     0.05  -0.06   0.00     0.22  -0.07   0.11     0.20  -0.07   0.09
  45   1     0.01   0.02  -0.01    -0.05  -0.21   0.14    -0.05  -0.18   0.15
  46   1    -0.00  -0.04   0.02     0.00   0.01  -0.01     0.01   0.03  -0.04
  47   1    -0.04   0.04   0.02    -0.01   0.01  -0.00    -0.02  -0.03  -0.05
  48   1    -0.01  -0.02   0.01    -0.15   0.06   0.00     0.46   0.09  -0.04
  49   1    -0.04   0.05   0.03     0.17  -0.07   0.07    -0.13   0.16   0.15
  50   1    -0.00  -0.04   0.00    -0.07  -0.13   0.23     0.11   0.05  -0.43
                     43                     44                     45
                        a                      a                      a 
 Frequencies --   937.9524              1507.4850              1520.4571
 Red. masses --    99.0000                99.0000                99.0000
 Frc consts  --    99.0000                99.0000                99.0000
 IR Inten    --    99.0000                99.0000                99.0000
 Raman Activ --     0.0000                 0.0000                 0.0000
 Depolar     --     0.0000                 0.0000                 0.0000
 Atom AN      X      Y      Z        X      Y      Z        X      Y      Z
   1   6     0.00  -0.06  -0.10     0.03  -0.02   0.08     0.09   0.08   0.10
   2   6    -0.05   0.03  -0.06     0.02  -0.01   0.03     0.04   0.01   0.05
   3   6     0.05   0.03   0.10    -0.00  -0.03  -0.02    -0.01  -0.01  -0.01
   4   6    -0.11  -0.07  -0.06     0.01  -0.00   0.00    -0.11   0.04  -0.07
   5   6     0.08  -0.05   0.09     0.04  -0.02   0.04    -0.02   0.02  -0.04
   6   6     0.14   0.12  -0.01    -0.00   0.00   0.01    -0.01  -0.00   0.00
   7   6    -0.13   0.01  -0.06     0.01  -0.00   0.03     0.04  -0.02   0.03
   8   6     0.14  -0.13   0.07    -0.06   0.04  -0.10     0.05  -0.03   0.07
   9   6     0.12   0.21   0.00    -0.01  -0.02  -0.02     0.00   0.01   0.01
  10   6    -0.18   0.00  -0.09    -0.02   0.03  -0.03    -0.01   0.00  -0.01
  11   6    -0.16  -0.09   0.00     0.02  -0.01   0.02    -0.03   0.03  -0.04
  12   6     0.03  -0.08   0.06    -0.04   0.03  -0.04     0.01   0.01   0.00
  13   6     0.23   0.08   0.02    -0.00  -0.00   0.00    -0.00  -0.00   0.00
  14   6    -0.16   0.02  -0.00    -0.00   0.01  -0.02     0.01  -0.00  -0.00
  15   6    -0.01  -0.01   0.01     0.04  -0.01   0.04     0.00  -0.01   0.01
  16   6     0.10   0.05   0.02     0.12   0.02   0.07    -0.00   0.01  -0.01
  17   1     0.15  -0.05  -0.04     0.12  -0.07  -0.01    -0.03  -0.42  -0.01
  18   1    -0.07   0.07   0.09    -0.06   0.20  -0.16    -0.12   0.23   0.04
  19   1     0.06   0.00   0.02    -0.20  -0.05  -0.15    -0.23  -0.13  -0.44
  20   1    -0.06   0.04   0.09    -0.01   0.03  -0.02    -0.01   0.05  -0.05
  21   1     0.00  -0.00  -0.04    -0.03  -0.02  -0.02    -0.07  -0.02  -0.04
  22   1    -0.02  -0.03   0.01     0.05   0.05   0.02     0.01   0.02   0.01
  23   1    -0.01   0.01   0.12    -0.04   0.05   0.03    -0.01   0.02  -0.00
  24   1    -0.01  -0.02   0.02    -0.02  -0.02  -0.01     0.12  -0.01   0.31
  25   1    -0.08  -0.04  -0.00    -0.02   0.00   0.00     0.28  -0.15  -0.01
  26   1     0.01  -0.03   0.02    -0.04  -0.01  -0.12     0.03   0.00   0.09
  27   1    -0.01  -0.09   0.05    -0.11   0.08  -0.01     0.07  -0.06   0.01
  28   1    -0.04  -0.08   0.03     0.02   0.00   0.00     0.00   0.00   0.00
  29   1     0.04   0.08  -0.14     0.01  -0.01  -0.02     0.00  -0.00  -0.00
  30   1    -0.01   0.09   0.10    -0.06  -0.02  -0.04    -0.10  -0.02  -0.05
  31   1    -0.01   0.03  -0.12    -0.01   0.05  -0.06    -0.02   0.09  -0.08
  32   1     0.02   0.02   0.08     0.27   0.03   0.15    -0.19  -0.03  -0.11
  33   1     0.11  -0.12  -0.10    -0.00  -0.21   0.23    -0.00   0.15  -0.16
  34   1     0.06   0.10   0.09    -0.01   0.03   0.04     0.00  -0.01  -0.01
  35   1    -0.05  -0.02   0.02     0.01   0.05  -0.02    -0.00  -0.01   0.01
  36   1    -0.09  -0.03  -0.03     0.02  -0.01   0.11     0.01   0.00   0.03
  37   1    -0.09  -0.03  -0.02     0.07  -0.09   0.01     0.02  -0.02   0.00
  38   1    -0.06  -0.05   0.00    -0.07   0.08  -0.00     0.09  -0.12   0.01
  39   1    -0.05  -0.02  -0.00    -0.05  -0.00  -0.10     0.05  -0.02   0.15
  40   1    -0.03  -0.05   0.01     0.05  -0.03   0.15    -0.01  -0.00  -0.01
  41   1    -0.03  -0.06   0.02     0.10  -0.12  -0.01    -0.01   0.01   0.00
  42   1     0.10   0.08  -0.16    -0.00   0.01  -0.00     0.00   0.00  -0.01
  43   1    -0.11   0.01   0.02    -0.00   0.01  -0.00     0.01  -0.00  -0.00
  44   1     0.08   0.03   0.16     0.02   0.00   0.02     0.00   0.00   0.00
  45   1     0.02   0.05  -0.21    -0.00  -0.03   0.01    -0.01   0.00   0.02
  46   1     0.04  -0.13  -0.19     0.03   0.04  -0.05     0.01   0.04  -0.03
  47   1    -0.02   0.09   0.14    -0.07   0.04  -0.03    -0.04   0.02  -0.02
  48   1    -0.11   0.03   0.01    -0.30  -0.27   0.05    -0.01   0.01  -0.00
  49   1    -0.13   0.14   0.04    -0.21  -0.06  -0.38     0.03  -0.01   0.02
  50   1     0.02  -0.22  -0.07     0.01   0.22   0.06    -0.01  -0.03   0.02
                     46                     47                     48
                        a                      a                      a 
 Frequencies --   897.9706              1012.9684               954.5763
 Red. masses --    99.0000                99.0000                99.0000
 Frc consts  --    99.0000                99.0000                99.0000
 IR Inten    --    99.0000                99.0000                99.0000
 Raman Activ --     0.0000                 0.0000                 0.0000
 Depolar     --     0.0000                 0.0000                 0.0000
 Atom AN      X      Y      Z        X      Y      Z        X      Y      Z
   1   6    -0.11   0.11   0.20     0.19  -0.12  -0.06     0.12  -0.03  -0.04
   2   6     0.18  -0.06   0.19    -0.18   0.10   0.05    -0.09   0.02   0.01
   3   6     0.04  -0.20  -0.27    -0.07   0.02   0.10    -0.13   0.02   0.10
   4   6    -0.06   0.15  -0.09     0.10  -0.03  -0.18     0.12  -0.02  -0.06
   5   6     0.01   0.03   0.13    -0.11   0.16   0.09    -0.11   0.25  -0.15
   6   6     0.02  -0.11  -0.16     0.05  -0.10  -0.06    -0.15   0.01   0.22
   7   6    -0.08  -0.01  -0.17    -0.03  -0.04  -0.24     0.19  -0.21  -0.05
   8   6     0.20  -0.05   0.18    -0.03   0.07   0.27     0.18  -0.15  -0.03
   9   6    -0.02   0.15   0.09    -0.09  -0.01  -0.09    -0.01   0.17   0.19
  10   6    -0.14  -0.00  -0.09     0.19  -0.06   0.06    -0.22   0.03  -0.10
  11   6     0.02  -0.04   0.03     0.02   0.11   0.05     0.04  -0.10  -0.03
  12   6    -0.00   0.12  -0.01     0.02  -0.01  -0.11    -0.03   0.13   0.06
  13   6    -0.05   0.03   0.04    -0.00  -0.04   0.09    -0.05   0.01  -0.02
  14   6     0.01  -0.15   0.07    -0.02   0.01  -0.00     0.03  -0.08  -0.06
  15   6    -0.00   0.03  -0.08    -0.00   0.02  -0.02     0.02  -0.03   0.03
  16   6     0.03   0.00  -0.06     0.00  -0.02   0.05    -0.01   0.04   0.03
  17   1    -0.21   0.09   0.08    -0.01   0.01  -0.01    -0.04  -0.01  -0.00
  18   1     0.04  -0.05  -0.07     0.07  -0.04  -0.07     0.08  -0.07  -0.08
  19   1    -0.08   0.01  -0.01     0.08  -0.05  -0.08    -0.02  -0.01  -0.02
  20   1     0.08  -0.06   0.02    -0.03   0.02  -0.02     0.02  -0.01  -0.12
  21   1     0.00  -0.01   0.09    -0.02   0.01  -0.03    -0.01   0.01   0.02
  22   1    -0.04  -0.08  -0.14     0.04  -0.07   0.26     0.06   0.05   0.16
  23   1    -0.02  -0.01  -0.02     0.01  -0.00  -0.05     0.03  -0.05  -0.11
  24   1    -0.08  -0.05  -0.06     0.06  -0.08   0.16     0.10   0.03   0.09
  25   1     0.12   0.17  -0.07    -0.12   0.15  -0.05    -0.12  -0.00   0.01
  26   1    -0.09  -0.08  -0.09    -0.06   0.08  -0.19     0.05   0.21  -0.13
  27   1     0.17  -0.01   0.02     0.09  -0.14   0.06    -0.05  -0.05  -0.00
  28   1     0.21  -0.05  -0.03     0.16  -0.22   0.04    -0.10  -0.06   0.07
  29   1    -0.07   0.06   0.10    -0.01   0.01   0.02    -0.00  -0.04  -0.01
  30   1    -0.01   0.01  -0.03    -0.03   0.02  -0.03     0.13  -0.11  -0.06
  31   1    -0.07   0.07   0.01    -0.01  -0.00  -0.06     0.06  -0.05  -0.04
  32   1    -0.01  -0.04  -0.01    -0.02   0.05   0.11     0.04  -0.07  -0.05
  33   1     0.07  -0.09   0.09    -0.03   0.06   0.08     0.08  -0.10  -0.02
  34   1     0.01   0.01  -0.00    -0.02   0.03   0.04     0.01  -0.03  -0.06
  35   1    -0.08   0.11   0.00    -0.21  -0.01  -0.03     0.05   0.16   0.02
  36   1    -0.09  -0.04   0.01     0.17   0.06   0.07    -0.20  -0.10  -0.00
  37   1    -0.06   0.03  -0.03    -0.12  -0.06   0.02     0.04   0.09  -0.04
  38   1     0.03   0.03   0.00    -0.05  -0.11   0.03     0.06   0.13  -0.02
  39   1    -0.02  -0.03   0.02     0.03   0.07  -0.07    -0.03  -0.08   0.09
  40   1     0.01   0.06  -0.05     0.01  -0.04   0.06     0.00   0.09  -0.10
  41   1     0.05   0.01  -0.01    -0.08   0.06  -0.02     0.09  -0.05   0.01
  42   1    -0.02  -0.01   0.02     0.01  -0.01  -0.04    -0.02  -0.02   0.04
  43   1    -0.01   0.05   0.01    -0.06   0.03   0.03     0.03  -0.04  -0.01
  44   1     0.07  -0.07   0.04     0.01  -0.03  -0.06     0.02  -0.02  -0.00
  45   1     0.02   0.02  -0.03    -0.00   0.00  -0.01     0.01  -0.02  -0.03
  46   1    -0.00  -0.02  -0.02     0.00  -0.01  -0.01     0.01  -0.01   0.00
  47   1    -0.04   0.07   0.03     0.00  -0.02  -0.05     0.00  -0.00   0.02
  48   1     0.02  -0.12  -0.01    -0.02   0.07   0.01    -0.02   0.04   0.01
  49   1    -0.05   0.08   0.06     0.02  -0.05  -0.04    -0.01   0.01  -0.00
  50   1    -0.01  -0.04   0.03     0.01  -0.01  -0.03    -0.00  -0.01  -0.01
                     49                     50                     51
                        a                      a                      a 
 Frequencies --  1509.1758               927.6455               987.0104
 Red. masses --    99.0000                99.0000                99.0000
 Frc consts  --    99.0000                99.0000                99.0000
 IR Inten    --    99.0000                99.0000                99.0000
 Raman Activ --     0.0000                 0.0000                 0.0000
 Depolar     --     0.0000                 0.0000                 0.0000
 Atom AN      X      Y      Z        X      Y      Z        X      Y      Z
   1   6    -0.01  -0.03  -0.02    -0.00  -0.06  -0.09    -0.03   0.00  -0.02
   2   6     0.02  -0.01   0.01    -0.05   0.02  -0.07     0.02  -0.00   0.00
   3   6     0.01   0.03   0.02     0.07   0.07   0.09     0.02  -0.03   0.00
   4   6     0.04   0.00   0.02    -0.06  -0.07  -0.03    -0.07   0.01  -0.01
   5   6    -0.09   0.02  -0.07     0.05  -0.10   0.09     0.07  -0.03   0.04
   6   6    -0.02  -0.00   0.02     0.13   0.08  -0.02    -0.01   0.03  -0.03
   7   6     0.03  -0.01   0.02    -0.11   0.09  -0.10    -0.01   0.01   0.05
   8   6     0.06  -0.04   0.07     0.09  -0.14   0.10     0.06  -0.04  -0.04
   9   6     0.01   0.03   0.02     0.07   0.16   0.02    -0.02  -0.01  -0.08
  10   6    -0.03   0.04  -0.05    -0.14   0.11  -0.13    -0.09   0.07   0.10
  11   6    -0.02   0.01  -0.02     0.12  -0.14   0.16     0.13  -0.04  -0.04
  12   6    -0.01   0.03  -0.02    -0.09   0.06  -0.08     0.03   0.30  -0.15
  13   6    -0.01  -0.00   0.01    -0.21  -0.00  -0.02    -0.15  -0.03   0.26
  14   6     0.03  -0.04   0.02     0.19  -0.04   0.10     0.08  -0.21  -0.23
  15   6     0.02  -0.03   0.06    -0.03   0.04  -0.08     0.05  -0.08   0.05
  16   6     0.02  -0.05   0.14    -0.08  -0.08  -0.09    -0.03   0.09   0.24
  17   1     0.01   0.10   0.00     0.14  -0.03  -0.04     0.05  -0.02  -0.01
  18   1     0.02  -0.02  -0.02    -0.08   0.08   0.09    -0.03   0.02   0.04
  19   1     0.02   0.03   0.10     0.08  -0.00   0.01    -0.00   0.01   0.02
  20   1    -0.02   0.05  -0.03    -0.07   0.05   0.08    -0.01   0.00   0.05
  21   1    -0.05  -0.01  -0.02     0.02  -0.00  -0.05    -0.01  -0.00   0.00
  22   1    -0.05  -0.06  -0.02    -0.03  -0.03   0.01    -0.01  -0.00  -0.04
  23   1     0.05  -0.06  -0.03    -0.02   0.04   0.10    -0.00  -0.02   0.06
  24   1    -0.05  -0.01  -0.11     0.00  -0.02   0.03    -0.02   0.01  -0.03
  25   1    -0.11   0.04   0.01    -0.07  -0.04   0.00     0.01   0.00  -0.01
[...]
  29   1     0.01   0.01   0.00    -0.03  -0.02  -0.01    -0.12  -0.07  -0.03
  30   1    -0.01  -0.01   0.01     0.01   0.02  -0.01    -0.00  -0.01   0.01
  31   1     0.08   0.04   0.02    -0.22  -0.12  -0.07    -0.04  -0.02  -0.01
  32   1    -0.02  -0.06   0.05    -0.07  -0.20   0.16     0.01   0.03  -0.02
  33   1     0.03   0.01   0.01     0.03   0.02   0.00     0.14   0.05   0.05
  34   1     0.03   0.07  -0.04    -0.01  -0.03   0.02     0.12   0.29  -0.21
  35   1     0.01  -0.03  -0.11    -0.00   0.01   0.03    -0.02   0.08   0.39
  36   1    -0.15   0.20   0.08    -0.00   0.00  -0.00    -0.11   0.15   0.04
  37   1     0.02  -0.11  -0.68    -0.00   0.01   0.07     0.00  -0.00   0.01
  38   1    -0.00  -0.01  -0.12     0.01  -0.01   0.02     0.00   0.01   0.11
  39   1    -0.00   0.00   0.01    -0.16   0.24   0.08     0.00  -0.01  -0.01
  40   1     0.12  -0.17  -0.10     0.02  -0.03  -0.02     0.01  -0.02  -0.01
  41   1     0.01   0.01   0.48     0.01   0.00   0.24    -0.00   0.00  -0.02
  42   1     0.05   0.00   0.01     0.10   0.00   0.02     0.21   0.00   0.06
  43   1     0.00   0.00   0.05     0.01   0.00   0.10    -0.02   0.00  -0.20
  44   1     0.02   0.03  -0.02    -0.12  -0.15   0.08     0.06   0.09  -0.05
  45   1    -0.01  -0.00  -0.00     0.62  -0.01   0.16    -0.02  -0.00  -0.00
  46   1    -0.09   0.00  -0.02     0.18  -0.01   0.04     0.08  -0.01   0.02
  47   1     0.11   0.14  -0.09    -0.11  -0.15   0.09    -0.01  -0.01   0.01
  48   1     0.00   0.00   0.02    -0.00  -0.01  -0.06     0.00   0.00  -0.00
  49   1    -0.01  -0.02   0.01     0.03   0.04  -0.02    -0.00  -0.00   0.00
  50   1     0.00   0.00  -0.00    -0.07   0.00  -0.02    -0.02   0.00  -0.00
                    133                    134                    135
                        a                      a                      a 
 Frequencies --  2972.7480              3031.9574              3028.3525
 Red. masses --    99.0000                99.0000                99.0000
 Frc consts  --    99.0000                99.0000                99.0000
 IR Inten    --    99.0000                99.0000                99.0000
 Raman Activ --     0.0000                 0.0000                 0.0000
 Depolar     --     0.0000                 0.0000                 0.0000
 Atom AN      X      Y      Z        X      Y      Z        X      Y      Z
   1   6    -0.00  -0.01   0.00    -0.06  -0.16   0.19     0.00   0.01  -0.01
   2   6     0.02   0.08  -0.02    -0.00  -0.03   0.01    -0.00   0.00  -0.00
   3   6    -0.01   0.09   0.05     0.00  -0.00  -0.00     0.00  -0.00   0.00
   4   6    -0.00   0.01   0.03     0.01  -0.01  -0.00     0.00  -0.00   0.00
   5   6     0.03  -0.02  -0.02     0.00  -0.00  -0.01     0.00   0.00   0.00
   6   6     0.10   0.03  -0.09     0.00   0.00  -0.00     0.00   0.00   0.00
   7   6     0.02   0.06  -0.04     0.00   0.00  -0.00     0.00   0.00   0.00
   8   6     0.01  -0.00   0.01     0.00   0.00  -0.00     0.00   0.00   0.00
   9   6    -0.01  -0.03  -0.03     0.00   0.00  -0.00     0.00   0.00   0.00
  10   6     0.02  -0.03  -0.01    -0.00   0.00   0.00    -0.00   0.00   0.00
  11   6    -0.00  -0.00  -0.04    -0.00   0.01   0.00    -0.00   0.00   0.00
  12   6     0.01  -0.01  -0.00    -0.00   0.00   0.00    -0.00   0.00   0.01
  13   6    -0.01  -0.00   0.00    -0.00   0.00  -0.00    -0.00  -0.00   0.00
  14   6    -0.01  -0.01   0.01    -0.01   0.00  -0.00    -0.01  -0.01   0.01
  15   6    -0.03  -0.00  -0.00    -0.01   0.00  -0.00    -0.04  -0.04   0.02
  16   6     0.00   0.00  -0.00    -0.05  -0.01  -0.05    -0.19  -0.16   0.14
  17   1    -0.00  -0.00  -0.01    -0.11   0.02  -0.73     0.01  -0.00   0.04
  18   1     0.02   0.01   0.01     0.34   0.16   0.13    -0.01  -0.00  -0.00
  19   1    -0.00   0.03  -0.01    -0.02   0.39  -0.09     0.00  -0.02   0.01
  20   1    -0.07  -0.03  -0.02     0.01   0.01   0.00     0.00   0.00   0.00
  21   1     0.02  -0.24   0.09    -0.00   0.08  -0.03    -0.00  -0.00   0.00
  22   1     0.30  -0.19  -0.14    -0.01   0.01   0.01     0.00   0.00   0.00
  23   1    -0.28  -0.15  -0.06     0.01   0.00   0.00    -0.00  -0.00  -0.00
  24   1     0.02  -0.01  -0.01    -0.05   0.03   0.02    -0.00   0.00   0.00
  25   1    -0.01  -0.02  -0.10     0.00  -0.00  -0.01    -0.00  -0.00  -0.01
  26   1    -0.12   0.09   0.03    -0.00   0.00  -0.00    -0.00   0.00   0.00
  27   1     0.01   0.01   0.05     0.00   0.01   0.02    -0.00  -0.00  -0.01
  28   1     0.02   0.14   0.42     0.00   0.00   0.01     0.00  -0.00  -0.00
  29   1    -0.39  -0.23  -0.11    -0.00  -0.00  -0.00    -0.00  -0.00  -0.00
  30   1    -0.04  -0.21   0.16    -0.00  -0.01   0.00     0.00   0.00  -0.00
  31   1    -0.02  -0.00  -0.01    -0.01  -0.00  -0.00    -0.01  -0.00  -0.00
  32   1     0.02   0.04  -0.03    -0.01  -0.02   0.01     0.00   0.00  -0.00
  33   1    -0.06  -0.02  -0.02     0.00   0.00  -0.00    -0.00  -0.00  -0.00
  34   1     0.03   0.08  -0.06    -0.00  -0.00   0.00    -0.00  -0.00   0.00
  35   1    -0.01   0.04   0.16     0.00  -0.00  -0.00     0.00  -0.00  -0.00
  36   1    -0.08   0.11   0.03     0.00  -0.01  -0.00     0.00  -0.00  -0.00
  37   1     0.00  -0.01  -0.02    -0.00   0.00   0.00     0.00  -0.00  -0.01
  38   1     0.00   0.01   0.14    -0.00   0.00   0.00    -0.00  -0.00  -0.01
  39   1     0.00  -0.01  -0.01     0.02  -0.03  -0.01     0.01  -0.01  -0.00
  40   1    -0.03   0.03   0.02     0.00  -0.01  -0.00     0.00  -0.00  -0.00
  41   1     0.00  -0.00  -0.00    -0.00   0.00   0.00    -0.00   0.00  -0.02
  42   1     0.06   0.00   0.02     0.01  -0.00   0.00     0.01  -0.00   0.00
  43   1    -0.00  -0.00  -0.02    -0.00  -0.00   0.00    -0.00   0.00  -0.01
  44   1     0.03   0.05  -0.02    -0.01  -0.01   0.00     0.02   0.04  -0.02
  45   1    -0.01  -0.00  -0.00     0.04   0.00   0.01     0.00  -0.00   0.00
  46   1     0.09  -0.01   0.03     0.03  -0.00   0.01     0.03  -0.01   0.01
  47   1     0.01   0.02  -0.01     0.00   0.00  -0.00     0.09   0.12  -0.07
  48   1     0.00   0.00  -0.00     0.01   0.01   0.17    -0.05  -0.04  -0.23
  49   1    -0.01  -0.01   0.01     0.01   0.03  -0.02     0.44   0.64  -0.36
  50   1    -0.00   0.00  -0.00     0.16  -0.01   0.04     0.28  -0.05   0.10
                    136                    137                    138
                        a                      a                      a 
 Frequencies --  2993.9675              2974.8614              3004.4298
 Red. masses --    99.0000                99.0000                99.0000
 Frc consts  --    99.0000                99.0000                99.0000
 IR Inten    --    99.0000                99.0000                99.0000
 Raman Activ --     0.0000                 0.0000                 0.0000
 Depolar     --     0.0000                 0.0000                 0.0000
 Atom AN      X      Y      Z        X      Y      Z        X      Y      Z
   1   6    -0.00   0.00   0.00    -0.00  -0.01   0.00     0.00   0.02  -0.01
   2   6    -0.02  -0.00  -0.01     0.01   0.05  -0.01    -0.03  -0.01  -0.01
   3   6    -0.00  -0.00  -0.00    -0.01   0.07   0.04     0.01  -0.01  -0.01
   4   6     0.01  -0.00  -0.00     0.01   0.01   0.04     0.10  -0.07  -0.04
   5   6     0.00   0.00   0.00    -0.04   0.03   0.01    -0.01  -0.04  -0.15
   6   6     0.00   0.00   0.00    -0.07  -0.02   0.06     0.01  -0.00  -0.02
   7   6     0.02   0.00   0.01    -0.01  -0.04   0.04     0.06   0.04   0.01
   8   6    -0.00  -0.02   0.02    -0.05  -0.02  -0.02     0.02   0.08  -0.07
   9   6     0.00   0.00  -0.01    -0.03  -0.09  -0.03     0.00   0.01  -0.01
  10   6    -0.01   0.01  -0.06     0.01  -0.02  -0.02     0.00  -0.00  -0.00
  11   6    -0.01   0.00  -0.05    -0.00   0.00   0.01     0.03  -0.04  -0.01
  12   6    -0.03   0.03  -0.15    -0.02   0.02   0.01     0.01  -0.01  -0.00
  13   6     0.01   0.00  -0.03    -0.06  -0.00   0.05     0.00  -0.00   0.00
  14   6     0.10  -0.00   0.03    -0.02  -0.03   0.02     0.02  -0.01   0.01
  15   6     0.05   0.08  -0.05    -0.03   0.00  -0.01     0.00  -0.00   0.00
  16   6    -0.02  -0.01   0.01     0.00   0.00  -0.00    -0.01   0.00  -0.00
  17   1    -0.00   0.00  -0.01    -0.00  -0.00  -0.01     0.00   0.00   0.01
  18   1     0.00   0.00   0.00     0.02   0.01   0.00    -0.02  -0.01  -0.01
  19   1     0.00  -0.01   0.00    -0.00   0.02  -0.01     0.00  -0.07   0.02
  20   1     0.06   0.04   0.02    -0.06  -0.03  -0.02     0.10   0.06   0.03
  21   1    -0.00  -0.03   0.01     0.01  -0.15   0.06    -0.00  -0.01   0.00
  22   1     0.00  -0.00  -0.00     0.25  -0.16  -0.11    -0.05   0.03   0.02
  23   1     0.00   0.00   0.00    -0.20  -0.10  -0.04     0.01   0.00   0.00
  24   1    -0.02   0.01   0.01    -0.03   0.02   0.02    -0.38   0.25   0.17
  25   1     0.00   0.00   0.00    -0.02  -0.03  -0.17     0.01  -0.01  -0.02
  26   1     0.00  -0.00  -0.00     0.15  -0.11  -0.04     0.03  -0.02  -0.03
  27   1     0.00  -0.00  -0.00    -0.00   0.01   0.03     0.03   0.17   0.56
  28   1     0.00  -0.00  -0.00    -0.01  -0.10  -0.29     0.00   0.02   0.07
  29   1    -0.00  -0.00  -0.00     0.27   0.16   0.07    -0.01  -0.01  -0.01
  30   1     0.01   0.02  -0.01     0.04   0.17  -0.13     0.00  -0.02   0.02
  31   1    -0.06  -0.03  -0.02    -0.02  -0.02  -0.00    -0.23  -0.12  -0.07
  32   1     0.04   0.09  -0.07    -0.02  -0.03   0.02    -0.12  -0.32   0.25
  33   1    -0.03  -0.02  -0.01     0.19   0.07   0.06     0.06   0.03   0.01
  34   1    -0.01  -0.01   0.01     0.11   0.26  -0.18    -0.02  -0.04   0.03
  35   1    -0.00   0.01   0.03    -0.02   0.06   0.30    -0.00   0.01   0.02
  36   1     0.06  -0.08  -0.03    -0.04   0.06   0.01    -0.01   0.01   0.00
  37   1    -0.01   0.04   0.25    -0.00   0.01   0.07    -0.00  -0.00  -0.00
  38   1     0.00   0.02   0.18    -0.00  -0.00  -0.02     0.00  -0.01  -0.03
  39   1     0.02  -0.03  -0.02     0.01  -0.01  -0.00    -0.11   0.17   0.06
  40   1     0.09  -0.13  -0.08     0.07  -0.09  -0.04    -0.01   0.02   0.01
  41   1     0.02   0.01   0.62    -0.00   0.00   0.00     0.00  -0.00  -0.01
  42   1    -0.02  -0.00  -0.01     0.25   0.00   0.07    -0.01  -0.00  -0.00
  43   1     0.01   0.00   0.12    -0.03   0.00  -0.27    -0.00  -0.00  -0.01
  44   1     0.02   0.01  -0.00     0.06   0.10  -0.05     0.01   0.02  -0.01
  45   1    -0.39   0.01  -0.11    -0.01  -0.00   0.00    -0.09   0.00  -0.02
  46   1     0.07   0.01   0.01     0.10  -0.01   0.03    -0.00   0.00  -0.00
  47   1    -0.24  -0.32   0.19    -0.00   0.00  -0.00     0.00   0.00   0.00
  48   1    -0.01  -0.00  -0.03     0.00   0.00   0.00    -0.00   0.00  -0.00
  49   1     0.04   0.06  -0.03    -0.01  -0.01   0.01    -0.00  -0.01   0.00
  50   1     0.04  -0.01   0.01    -0.00   0.00  -0.00     0.02  -0.00   0.01
                    139                    140                    141
                        a                      a                      a 
 Frequencies --  3028.8105              2987.3643              3030.9589
 Red. masses --    99.0000                99.0000                99.0000
 Frc consts  --    99.0000                99.0000                99.0000
 IR Inten    --    99.0000                99.0000                99.0000
 Raman Activ --     0.0000                 0.0000                 0.0000
 Depolar     --     0.0000                 0.0000                 0.0000
 Atom AN      X      Y      Z        X      Y      Z        X      Y      Z
   1   6    -0.20  -0.08  -0.17    -0.00  -0.00   0.00    -0.03  -0.05   0.04
   2   6    -0.05  -0.02  -0.02    -0.00   0.00  -0.00    -0.01  -0.01   0.00
   3   6    -0.01  -0.00  -0.00     0.00   0.00   0.00    -0.00   0.00   0.00
   4   6    -0.01   0.00  -0.00     0.00  -0.00   0.00     0.00  -0.00   0.00
   5   6    -0.00  -0.00  -0.01    -0.00   0.00   0.00    -0.00  -0.00  -0.00
   6   6    -0.00  -0.00  -0.00    -0.00  -0.00   0.00    -0.00  -0.00   0.00
   7   6    -0.00  -0.00  -0.00    -0.02  -0.01  -0.01     0.00  -0.00   0.00
   8   6    -0.00   0.00  -0.00    -0.00   0.01  -0.01    -0.00  -0.00   0.00
   9   6    -0.00  -0.00  -0.00    -0.00  -0.01   0.03    -0.00  -0.00   0.00
  10   6     0.00  -0.00  -0.00     0.02  -0.02   0.10     0.00  -0.00   0.00
  11   6    -0.00   0.00  -0.00    -0.01   0.02   0.05     0.00  -0.01  -0.00
  12   6     0.00  -0.00  -0.00     0.02  -0.03   0.07     0.00  -0.00   0.00
  13   6     0.00   0.00  -0.00     0.02  -0.00   0.01     0.00  -0.00   0.00
  14   6    -0.00   0.00  -0.00     0.03   0.02  -0.01     0.02  -0.01   0.01
  15   6    -0.00   0.00  -0.00     0.04   0.14  -0.10     0.03  -0.01   0.02
  16   6    -0.01  -0.00  -0.02    -0.01  -0.01   0.02     0.17  -0.01   0.22
  17   1     0.03  -0.04   0.43    -0.00  -0.00  -0.00    -0.03   0.00  -0.16
  18   1     0.71   0.38   0.18     0.00   0.00   0.00     0.15   0.07   0.05
  19   1    -0.03  -0.04  -0.02    -0.00   0.00  -0.00    -0.01   0.09  -0.02
  20   1     0.14   0.09   0.04     0.01   0.01   0.00     0.02   0.01   0.01
  21   1    -0.00  -0.03   0.01     0.00  -0.02   0.01    -0.00   0.01  -0.01
  22   1     0.02  -0.01  -0.01     0.01  -0.01  -0.01     0.01  -0.00  -0.00
  23   1     0.04   0.02   0.01    -0.01  -0.01  -0.00    -0.00  -0.00   0.00
  24   1     0.03  -0.02  -0.01    -0.02   0.01   0.01    -0.01   0.01   0.01
  25   1     0.00   0.00   0.01    -0.00  -0.00  -0.01    -0.00  -0.00  -0.01
  26   1     0.01  -0.01  -0.00     0.00  -0.00   0.00     0.00  -0.00  -0.00
  27   1     0.00   0.01   0.03    -0.00  -0.00  -0.01     0.00   0.00   0.01
  28   1    -0.00   0.00   0.01    -0.00  -0.00  -0.01    -0.00  -0.00  -0.00
  29   1     0.01   0.00   0.00     0.02   0.01   0.00     0.00   0.00   0.00
  30   1    -0.00  -0.00   0.00    -0.00  -0.00  -0.00     0.00   0.00  -0.00
  31   1     0.02   0.01   0.00     0.06   0.03   0.02    -0.00  -0.00  -0.00
  32   1    -0.00  -0.00   0.00    -0.02  -0.04   0.03     0.00   0.00  -0.00
  33   1     0.01   0.00   0.00     0.03   0.01   0.01     0.00   0.00   0.00
  34   1     0.00   0.00  -0.00     0.02   0.04  -0.03     0.00   0.00  -0.00
  35   1    -0.00   0.00   0.00     0.00  -0.02  -0.06     0.00  -0.00  -0.00
  36   1    -0.00   0.00  -0.00    -0.09   0.12   0.05    -0.00   0.00   0.00
  37   1     0.00   0.00   0.00     0.01  -0.06  -0.40     0.00  -0.00  -0.00
  38   1    -0.00   0.00   0.00    -0.01  -0.01  -0.13     0.00  -0.00  -0.01
  39   1     0.00  -0.01  -0.00     0.05  -0.07  -0.02    -0.02   0.02   0.01
  40   1    -0.00   0.00   0.00    -0.07   0.10   0.06    -0.00   0.01   0.00
  41   1     0.00  -0.00   0.00    -0.01  -0.01  -0.31    -0.00   0.00  -0.01
  42   1    -0.00   0.00  -0.00    -0.05  -0.00  -0.01    -0.02   0.00  -0.00
  43   1     0.00  -0.00   0.00     0.00   0.00  -0.03    -0.00   0.00  -0.01
  44   1    -0.01  -0.01   0.00    -0.04  -0.07   0.04     0.02   0.02  -0.01
  45   1     0.02  -0.00   0.01    -0.08   0.00  -0.02    -0.08  -0.00  -0.02
  46   1     0.00   0.00   0.00     0.24   0.00   0.05    -0.10   0.01  -0.03
  47   1    -0.00  -0.00   0.00    -0.38  -0.51   0.31     0.02   0.03  -0.02
  48   1     0.01   0.01   0.08    -0.01  -0.01  -0.05    -0.03  -0.05  -0.65
  49   1    -0.00   0.00  -0.00     0.05   0.08  -0.04     0.05   0.03   0.01
  50   1     0.03  -0.00   0.00    -0.00  -0.00   0.01    -0.61   0.05  -0.14
                    142                    143                    144
                        a                      a                      a 
 Frequencies --  2977.0230              3042.9846              3036.6354
 Red. masses --    99.0000                99.0000                99.0000
 Frc consts  --    99.0000                99.0000                99.0000
 IR Inten    --    99.0000                99.0000                99.0000
 Raman Activ --     0.0000                 0.0000                 0.0000
 Depolar     --     0.0000                 0.0000                 0.0000
 Atom AN      X      Y      Z        X      Y      Z        X      Y      Z
   1   6     0.00  -0.00   0.00    -0.04   0.19   0.03    -0.01  -0.02  -0.00
   2   6     0.00   0.01  -0.00     0.00   0.02  -0.00    -0.00  -0.00   0.00
   3   6    -0.00   0.01   0.00    -0.00   0.00   0.00    -0.00  -0.00  -0.00
   4   6     0.01  -0.00   0.00    -0.02   0.01   0.01    -0.00   0.00  -0.00
   5   6    -0.01   0.01   0.00    -0.00   0.00   0.00    -0.00   0.00   0.00
   6   6    -0.02  -0.01   0.02    -0.00   0.00   0.00    -0.00  -0.00   0.00
   7   6     0.00  -0.02   0.02    -0.00  -0.00   0.00    -0.00  -0.00  -0.00
   8   6    -0.03  -0.02  -0.01    -0.00  -0.00   0.00    -0.00  -0.00  -0.00
   9   6    -0.02  -0.08  -0.04    -0.00  -0.00   0.00    -0.00  -0.00  -0.00
  10   6     0.03  -0.05  -0.01     0.00  -0.00   0.00    -0.00   0.00   0.00
  11   6    -0.01   0.00  -0.07     0.00  -0.00  -0.00    -0.00   0.00  -0.00
  12   6     0.05  -0.06  -0.04     0.00  -0.00   0.00    -0.00  -0.00  -0.00
  13   6     0.10   0.00  -0.10     0.00   0.00   0.00    -0.00  -0.00  -0.00
  14   6     0.03   0.04  -0.03    -0.00   0.00  -0.00    -0.01   0.00  -0.00
  15   6     0.04  -0.01   0.02    -0.00   0.00  -0.00    -0.01   0.00   0.00
  16   6    -0.01  -0.00  -0.00    -0.01   0.01   0.00    -0.09   0.10   0.08
  17   1    -0.00   0.00  -0.01    -0.06   0.05  -0.40     0.00  -0.00   0.03
  18   1    -0.00  -0.00  -0.00     0.15   0.11   0.05     0.02   0.01   0.01
  19   1    -0.00   0.01  -0.00     0.03  -0.82   0.25    -0.00   0.05  -0.02
  20   1    -0.01  -0.01  -0.00    -0.01  -0.01  -0.00     0.00   0.00   0.00
  21   1     0.00  -0.02   0.01     0.00  -0.05   0.02    -0.00   0.00  -0.00
  22   1     0.02  -0.02  -0.01     0.01  -0.01  -0.01    -0.00   0.00   0.00
  23   1    -0.02  -0.01  -0.00    -0.00   0.00  -0.00     0.01   0.01   0.00
  24   1    -0.03   0.02   0.01     0.06  -0.04  -0.03     0.01  -0.01  -0.01
  25   1    -0.00  -0.00  -0.02    -0.00   0.00   0.00     0.00   0.00   0.01
  26   1     0.03  -0.02  -0.01     0.01  -0.00  -0.00     0.00  -0.00  -0.00
  27   1    -0.00  -0.00  -0.01    -0.00  -0.00  -0.01    -0.00  -0.00  -0.00
  28   1    -0.00  -0.03  -0.08    -0.00  -0.00  -0.00    -0.00  -0.00  -0.00
  29   1     0.09   0.05   0.02     0.00   0.00   0.00     0.00   0.00   0.00
  30   1     0.02   0.07  -0.05     0.00   0.00  -0.00    -0.00  -0.00   0.00
  31   1    -0.03  -0.02  -0.01     0.00   0.00   0.00     0.01   0.00   0.00
  32   1    -0.00  -0.00  -0.00     0.00   0.01  -0.01    -0.00  -0.00   0.00
  33   1     0.12   0.05   0.04    -0.00  -0.00   0.00     0.00   0.00   0.00
  34   1     0.09   0.21  -0.15     0.00   0.00  -0.00     0.00   0.00  -0.00
  35   1    -0.02   0.06   0.28    -0.00   0.00   0.00    -0.00   0.00   0.00
  36   1    -0.13   0.18   0.05    -0.00   0.00   0.00     0.00  -0.00  -0.00
  37   1     0.00  -0.01  -0.04     0.00  -0.00  -0.00    -0.00  -0.00  -0.00
  38   1     0.01   0.03   0.27    -0.00   0.00   0.00    -0.00   0.00   0.00
  39   1     0.03  -0.04  -0.02    -0.00   0.00   0.00     0.00  -0.01  -0.00
  40   1    -0.17   0.23   0.11    -0.00   0.00   0.00    -0.00   0.00  -0.00
  41   1     0.01  -0.01   0.01    -0.00  -0.00  -0.00    -0.00  -0.00   0.00
  42   1    -0.42  -0.00  -0.13    -0.00   0.00  -0.00     0.00  -0.00   0.00
  43   1     0.05  -0.00   0.47     0.00  -0.00  -0.00     0.00   0.00   0.00
  44   1    -0.10  -0.17   0.09    -0.00  -0.00   0.00    -0.01  -0.01   0.00
  45   1     0.03   0.01   0.00     0.02  -0.00   0.01     0.03   0.00   0.01
  46   1    -0.18   0.01  -0.05    -0.00   0.00  -0.00     0.03  -0.00   0.01
  47   1     0.04   0.04  -0.02    -0.00  -0.00   0.00    -0.00   0.00  -0.00
  48   1    -0.00  -0.00   0.01    -0.00  -0.00  -0.03    -0.06  -0.03  -0.63
  49   1     0.01   0.01  -0.01    -0.01  -0.02   0.01    -0.22  -0.29   0.18
  50   1     0.02  -0.00   0.01     0.04  -0.00   0.01     0.60  -0.04   0.18
