      -----------------------------------------------------------      
     |                   =====================                   |     
     |                           x T B                           |     
     |                   =====================                   |     
     |                         S. Grimme                         |     
     |          Mulliken Center for Theoretical Chemistry        |     
     |                    University of Bonn                     |     
      -----------------------------------------------------------      

   * xtb version 6.6.1 (8d0f1dd) compiled by 'stahn@M-Bot' on 2023-08-01

   xtb is free software: you can redistribute it and/or modify it under
   the terms of the GNU Lesser General Public License as published by
   the Free Software Foundation, either version 3 of the License, or
   (at your option) any later version.
   
   xtb is distributed in the hope that it will be useful,
   but WITHOUT ANY WARRANTY; without even the implied warranty of
   MERCHANTABILITY or FITNESS FOR A PARTICULAR PURPOSE.  See the
   GNU Lesser General Public License for more details.
   
   Cite this work as:
   * C. Bannwarth, E. Caldeweyher, S. Ehlert, A. Hansen, P. Pracht,
     J. Seibert, S. Spicher, S. Grimme, WIREs Comput. Mol. Sci., 2020, 11,
     e01493. DOI: 10.1002/wcms.1493
   
   for GFN2-xTB:
   * C. Bannwarth, S. Ehlert and S. Grimme., J. Chem. Theory Comput., 2019,
     15, 1652-1671. DOI: 10.1021/acs.jctc.8b01176
   for GFN1-xTB:
   * S. Grimme, C. Bannwarth, P. Shushkov, J. Chem. Theory Comput., 2017,
     13, 1989-2009. DOI: 10.1021/acs.jctc.7b00118
   for GFN0-xTB:
   * P. Pracht, E. Caldeweyher, S. Ehlert, S. Grimme, ChemRxiv, 2019, preprint.
     DOI: 10.26434/chemrxiv.8326202.v1
   for GFN-FF:
   * S. Spicher and S. Grimme, Angew. Chem. Int. Ed., 2020, 59, 15665-15673.
     DOI: 10.1002/anie.202004239
   
   for ALPB and GBSA implicit solvation:
   * S. Ehlert, M. Stahn, S. Spicher, S. Grimme, J. Chem. Theory Comput.,
     2021, 17, 4250-4261. DOI: 10.1021/acs.jctc.1c00471
   
   for DFT-D4:
   * E. Caldeweyher, C. Bannwarth and S. Grimme, J. Chem. Phys., 2017,
     147, 034112. DOI: 10.1063/1.4993215
   * E. Caldeweyher, S. Ehlert, A. Hansen, H. Neugebauer, S. Spicher,
     C. Bannwarth and S. Grimme, J. Chem. Phys., 2019, 150, 154122.
     DOI: 10.1063/1.5090222
   * E. Caldeweyher, J.-M. Mewes, S. Ehlert and S. Grimme, Phys. Chem. Chem. Phys.
     2020, 22, 8499-8512. DOI: 10.1039/D0CP00502A
   
   for sTDA-xTB:
   * S. Grimme and C. Bannwarth, J. Chem. Phys., 2016, 145, 054103.
     DOI: 10.1063/1.4959605
   
   in the mass-spec context:
   * V. Asgeirsson, C. Bauer and S. Grimme, Chem. Sci., 2017, 8, 4879.
     DOI: 10.1039/c7sc00601b
   * J. Koopman and S. Grimme, ACS Omega 2019, 4, 12, 15120-15133.
     DOI: 10.1021/acsomega.9b02011
   
   for metadynamics refer to:
   * S. Grimme, J. Chem. Theory Comput., 2019, 155, 2847-2862
     DOI: 10.1021/acs.jctc.9b00143
   
   for SPH calculations refer to:
   * S. Spicher and S. Grimme, J. Chem. Theory Comput., 2021, 17, 1701-1714
     DOI: 10.1021/acs.jctc.0c01306
   
   with help from (in alphabetical order)
   P. Atkinson, C. Bannwarth, F. Bohle, G. Brandenburg, E. Caldeweyher
   M. Checinski, S. Dohm, S. Ehlert, S. Ehrlich, I. Gerasimov, C. Hölzer
   A. Katbashev, J. Koopman, C. Lavigne, S. Lehtola, F. März, M. Müller,
   F. Musil, H. Neugebauer, J. Pisarek, C. Plett, P. Pracht, F. Pultar,
   J. Seibert, P. Shushkov, S. Spicher, M. Stahn, M. Steiner, T. Strunk,
   J. Stückrath, T. Rose, and J. Unsleber
   
 * started run on 2024/04/23 at 12:10:46.116     

           -------------------------------------------------
          |                Calculation Setup                |
           -------------------------------------------------

          program call               : xtb folded.xyz --gfn 2 --ohess -P 4
          coordinate file            : folded.xyz
          omp threads                :                     4

   ID    Z sym.   atoms
    1    6 C      1-16
    2    1 H      17-50

           -------------------------------------------------
          |                 G F N 2 - x T B                 |
           -------------------------------------------------

        Reference                      10.1021/acs.jctc.8b01176
      * Hamiltonian:
        H0-scaling (s, p, d)           1.850000    2.230000    2.230000
        zeta-weighting                 0.500000
      * Dispersion:
        s8                             2.700000
        a1                             0.520000
        a2                             5.000000
        s9                             5.000000
      * Repulsion:
        kExp                           1.500000    1.000000
        rExp                           1.000000
      * Coulomb:
        alpha                          2.000000
        third order                    shell-resolved
        anisotropic                    true
        a3                             3.000000
        a5                             4.000000
        cn-shift                       1.200000
        cn-exp                         4.000000
        max-rad                        5.000000


          ...................................................
          :                      SETUP                      :
          :.................................................:
          :  # basis functions                  98          :
          :  # atomic orbitals                  98          :
          :  # shells                           66          :
          :  # electrons                        98          :
          :  max. iterations                   250          :
          :  Hamiltonian                  GFN2-xTB          :
          :  restarted?                      false          :
          :  GBSA solvation                  false          :
          :  PC potential                    false          :
          :  electronic temp.          300.0000000     K    :
          :  accuracy                    1.0000000          :
          :  -> integral cutoff          0.2500000E+02      :
          :  -> integral neglect         0.1000000E-07      :
          :  -> SCF convergence          0.1000000E-05 Eh   :
          :  -> wf. convergence          0.1000000E-03 e    :
          :  Broyden damping             0.4000000          :
          ...................................................

 iter      E             dE          RMSdq      gap      omega  full diag
   1    -52.2497573 -0.522498E+02  0.244E+00   12.84       0.0  T
   2    -52.3760525 -0.126295E+00  0.130E+00   12.60       1.0  T
   3    -52.3776551 -0.160262E-02  0.687E-01   12.58       1.0  T
   4    -52.3780425 -0.387358E-03  0.860E-02   12.59       1.0  T
   5    -52.3780631 -0.205874E-04  0.454E-02   12.59       1.0  T
   6    -52.3780663 -0.318641E-05  0.519E-03   12.59       2.7  T
   7    -52.3780665 -0.199563E-06  0.149E-03   12.59       9.5  T
   8    -52.3780665 -0.234782E-07  0.304E-04   12.59      46.6  T
   9    -52.3780665 -0.214385E-09  0.141E-04   12.59     100.4  T

   *** convergence criteria satisfied after 9 iterations ***

         #    Occupation            Energy/Eh            Energy/eV
      -------------------------------------------------------------
         1        2.0000           -0.6233952             -16.9634
       ...           ...                  ...                  ...
        43        2.0000           -0.4203855             -11.4393
        44        2.0000           -0.4161044             -11.3228
        45        2.0000           -0.4159026             -11.3173
        46        2.0000           -0.4130886             -11.2407
        47        2.0000           -0.4086292             -11.1194
        48        2.0000           -0.4072992             -11.0832
        49        2.0000           -0.4066066             -11.0643 (HOMO)
        50                          0.0561688               1.5284 (LUMO)
        51                          0.0592633               1.6126
        52                          0.0670416               1.8243
        53                          0.0720159               1.9597
        54                          0.0740938               2.0162
       ...                                ...                  ...
        98                          0.3290309               8.9534
      -------------------------------------------------------------
                  HL-Gap            0.4627755 Eh           12.5928 eV
             Fermi-level           -0.1752189 Eh           -4.7679 eV

 SCC (total)                   0 d,  0 h,  0 min,  0.042 sec
 SCC setup                      ...        0 min,  0.000 sec (  0.921%)
 Dispersion                     ...        0 min,  0.000 sec (  1.169%)
 classical contributions        ...        0 min,  0.000 sec (  0.130%)
 integral evaluation            ...        0 min,  0.003 sec (  6.227%)
 iterations                     ...        0 min,  0.031 sec ( 73.307%)
 molecular gradient             ...        0 min,  0.007 sec ( 17.260%)
 printout                       ...        0 min,  0.000 sec (  0.903%)

         :::::::::::::::::::::::::::::::::::::::::::::::::::::
         ::                     SUMMARY                     ::
         :::::::::::::::::::::::::::::::::::::::::::::::::::::
         :: total energy             -51.629132673018 Eh    ::
         :: gradient norm              0.036333783304 Eh/a0 ::
         :: HOMO-LUMO gap             12.592761664218 eV    ::
         ::.................................................::
         :: SCC energy               -52.378066504656 Eh    ::
         :: -> isotropic ES            0.007598345900 Eh    ::
         :: -> anisotropic ES          0.017371694105 Eh    ::
         :: -> anisotropic XC          0.030163895373 Eh    ::
         :: -> dispersion             -0.041167948515 Eh    ::
         :: repulsion energy           0.747295249426 Eh    ::
         :: add. restraining           0.000000000000 Eh    ::
         :: total charge               0.000000000000 e     ::
         :::::::::::::::::::::::::::::::::::::::::::::::::::::

      ----------------------------------------------------------- 
     |                   =====================                   |
     |                        A N C O P T                        |
     |                   =====================                   |
     |               Approximate Normal Coordinate               |
     |                Rational Function Optimizer                |
      ----------------------------------------------------------- 

          ...................................................
          :                      SETUP                      :
          :.................................................:
          :   optimization level            normal          :
          :   max. optcycles                   200          :
          :   ANC micro-cycles                  20          :
          :   degrees of freedom               144          :
          :.................................................:
          :   RF solver                   davidson          :
          :   write xtbopt.log                true          :
          :   linear?                        false          :
          :   energy convergence         0.5000000E-05 Eh   :
          :   grad. convergence          0.1000000E-02 Eh/α :
          :   maxmium RF displ.          2.0000000          :
          :   Hlow (freq-cutoff)         0.2000000E-01      :
          :   Hmax (freq-cutoff)         5.0000000          :
          :   S6 in model hess.         70.0000000          :
          ...................................................

generating ANC from model Hessian ...
Using Lindh-Hessian (1995)
 Shifting diagonal of input Hessian by   1.951057332496384E-002
 Lowest  eigenvalues of input Hessian
    0.000000    0.000000    0.000000    0.000000    0.000000    0.000000
    0.020000    0.020721    0.020995    0.021413    0.021707    0.022395
    0.023470    0.024179    0.025001    0.025864    0.026360    0.027281
 Highest eigenvalues
    1.245031    1.274664    1.286100    1.297740    1.306114    1.315785
 

........................................................................
.............................. CYCLE    1 ..............................
........................................................................

 iter      E             dE          RMSdq      gap      omega  full diag
   1    -52.3780665 -0.523781E+02  0.205E-05   12.59       0.0  T
   2    -52.3780665 -0.294875E-11  0.113E-05   12.59    1249.0  T
   3    -52.3780665 -0.120792E-12  0.505E-06   12.59    2802.4  T
     SCC iter.                  ...        0 min,  0.005 sec
     gradient                   ...        0 min,  0.008 sec
 * total energy  :   -51.6291327 Eh     change       -0.3739586E-10 Eh
   gradient norm :     0.0363330 Eh/α   predicted     0.0000000E+00 (-100.00%)
   displ. norm   :     0.2123885 α      lambda       -0.4576510E-02
   maximum displ.:     0.0815216 α      in ANC's #66, #48, #65, ...

........................................................................
.............................. CYCLE    2 ..............................
........................................................................

 iter      E             dE          RMSdq      gap      omega  full diag
   1    -52.3939554 -0.523940E+02  0.135E-01   12.73       0.0  T
   2    -52.3939615 -0.610762E-05  0.776E-02   12.73       1.0  T
   3    -52.3939625 -0.973562E-06  0.363E-03   12.73       3.9  T
   4    -52.3939626 -0.793345E-07  0.114E-03   12.73      12.4  T
   5    -52.3939626 -0.459963E-08  0.609E-04   12.73      23.2  T
   6    -52.3939626 -0.638472E-09  0.100E-04   12.73     141.2  T
     SCC iter.                  ...        0 min,  0.008 sec
     gradient                   ...        0 min,  0.008 sec
 * total energy  :   -51.6321838 Eh     change       -0.3051135E-02 Eh
   gradient norm :     0.0158385 Eh/α   predicted    -0.2391488E-02 ( -21.62%)
   displ. norm   :     0.1195414 α      lambda       -0.9084863E-03
   maximum displ.:     0.0389814 α      in ANC's #66, #65, #48, ...

........................................................................
.............................. CYCLE    3 ..............................
........................................................................

 iter      E             dE          RMSdq      gap      omega  full diag
   1    -52.4042735 -0.524043E+02  0.660E-02   12.81       0.0  T
   2    -52.4042772 -0.373223E-05  0.375E-02   12.81       1.0  T
   3    -52.4042774 -0.216735E-06  0.342E-03   12.81       4.1  T
   4    -52.4042775 -0.271544E-07  0.619E-04   12.81      22.9  T
   5    -52.4042775 -0.176556E-08  0.353E-04   12.81      40.0  T
     SCC iter.                  ...        0 min,  0.006 sec
     gradient                   ...        0 min,  0.007 sec
 * total energy  :   -51.6326806 Eh     change       -0.4967785E-03 Eh
   gradient norm :     0.0027603 Eh/α   predicted    -0.4607379E-03 (  -7.25%)
   displ. norm   :     0.0465876 α      lambda       -0.5425132E-04
   maximum displ.:     0.0181618 α      in ANC's #11, #5, #13, ...

........................................................................
.............................. CYCLE    4 ..............................
........................................................................

 iter      E             dE          RMSdq      gap      omega  full diag
   1    -52.4055849 -0.524056E+02  0.762E-03   12.82       0.0  T
   2    -52.4055851 -0.136623E-06  0.437E-03   12.82       3.2  T
   3    -52.4055851 -0.405593E-08  0.796E-04   12.82      17.8  T
   4    -52.4055851 -0.117208E-08  0.144E-04   12.82      97.9  T
     SCC iter.                  ...        0 min,  0.007 sec
     gradient                   ...        0 min,  0.011 sec
 * total energy  :   -51.6327272 Eh     change       -0.4664856E-04 Eh
   gradient norm :     0.0011701 Eh/α   predicted    -0.2830984E-04 ( -39.31%)
   displ. norm   :     0.2157198 α      lambda       -0.1239206E-03
   maximum displ.:     0.0841638 α      in ANC's #11, #5, #7, ...

........................................................................
.............................. CYCLE    5 ..............................
........................................................................

 iter      E             dE          RMSdq      gap      omega  full diag
   1    -52.4069386 -0.524069E+02  0.230E-02   12.82       0.0  T
   2    -52.4069393 -0.703966E-06  0.136E-02   12.82       1.0  T
   3    -52.4069393 -0.594920E-07  0.171E-03   12.82       8.3  T
   4    -52.4069394 -0.189192E-07  0.553E-04   12.82      25.6  T
   5    -52.4069394 -0.282785E-08  0.169E-04   12.82      83.6  T
     SCC iter.                  ...        0 min,  0.008 sec
     gradient                   ...        0 min,  0.009 sec
 * total energy  :   -51.6328216 Eh     change       -0.9431938E-04 Eh
   gradient norm :     0.0055696 Eh/α   predicted    -0.6324260E-04 ( -32.95%)
   displ. norm   :     0.0505317 α      lambda       -0.3894146E-04
   maximum displ.:     0.0245153 α      in ANC's #5, #7, #6, ...

........................................................................
.............................. CYCLE    6 ..............................
........................................................................

 iter      E             dE          RMSdq      gap      omega  full diag
   1    -52.4059229 -0.524059E+02  0.566E-03   12.82       0.0  T
   2    -52.4059230 -0.917520E-07  0.324E-03   12.82       4.4  T
   3    -52.4059230 -0.220608E-08  0.664E-04   12.82      21.3  T
   4    -52.4059230 -0.611699E-09  0.100E-04   12.82     141.3  T
     SCC iter.                  ...        0 min,  0.008 sec
     gradient                   ...        0 min,  0.012 sec
 * total energy  :   -51.6328554 Eh     change       -0.3383512E-04 Eh
   gradient norm :     0.0036554 Eh/α   predicted    -0.1952420E-04 ( -42.30%)
   displ. norm   :     0.1750418 α      lambda       -0.9992958E-04
   maximum displ.:     0.0904996 α      in ANC's #5, #7, #6, ...

........................................................................
.............................. CYCLE    7 ..............................
........................................................................

 iter      E             dE          RMSdq      gap      omega  full diag
   1    -52.4033912 -0.524034E+02  0.167E-02   12.81       0.0  T
   2    -52.4033918 -0.634895E-06  0.971E-03   12.80       1.5  T
   3    -52.4033918 -0.146622E-07  0.166E-03   12.80       8.5  T
   4    -52.4033918 -0.475539E-08  0.271E-04   12.80      52.3  T
   5    -52.4033918 -0.690690E-09  0.126E-04   12.80     111.8  T
     SCC iter.                  ...        0 min,  0.007 sec
     gradient                   ...        0 min,  0.013 sec
 * total energy  :   -51.6329159 Eh     change       -0.6049559E-04 Eh
   gradient norm :     0.0018866 Eh/α   predicted    -0.5163070E-04 ( -14.65%)
   displ. norm   :     0.1296468 α      lambda       -0.2546032E-04
   maximum displ.:     0.0724002 α      in ANC's #5, #7, #6, ...

........................................................................
.............................. CYCLE    8 ..............................
........................................................................

 iter      E             dE          RMSdq      gap      omega  full diag
   1    -52.4029413 -0.524029E+02  0.108E-02   12.80       0.0  T
   2    -52.4029414 -0.517222E-07  0.643E-03   12.80       2.2  T
   3    -52.4029414 -0.398141E-08  0.362E-04   12.80      39.0  T
   4    -52.4029414 -0.121684E-08  0.143E-04   12.80      98.9  T
     SCC iter.                  ...        0 min,  0.006 sec
     gradient                   ...        0 min,  0.023 sec
 * total energy  :   -51.6329458 Eh     change       -0.2989256E-04 Eh
   gradient norm :     0.0032157 Eh/α   predicted    -0.1282696E-04 ( -57.09%)
   displ. norm   :     0.1711263 α      lambda       -0.5864884E-04
   maximum displ.:     0.0985144 α      in ANC's #5, #1, #4, ...

........................................................................
.............................. CYCLE    9 ..............................
........................................................................

 iter      E             dE          RMSdq      gap      omega  full diag
   1    -52.4034785 -0.524035E+02  0.148E-02   12.80       0.0  T
   2    -52.4034785 -0.392984E-07  0.877E-03   12.80       1.6  T
   3    -52.4034785 -0.737541E-08  0.377E-04   12.80      37.5  T
   4    -52.4034785 -0.129341E-08  0.182E-04   12.80      77.5  T
     SCC iter.                  ...        0 min,  0.011 sec
     gradient                   ...        0 min,  0.025 sec
 * total energy  :   -51.6329933 Eh     change       -0.4756982E-04 Eh
   gradient norm :     0.0026349 Eh/α   predicted    -0.3018353E-04 ( -36.55%)
   displ. norm   :     0.2662240 α      lambda       -0.7123301E-04
   maximum displ.:     0.1544666 α      in ANC's #5, #1, #4, ...

........................................................................
.............................. CYCLE   10 ..............................
........................................................................

 iter      E             dE          RMSdq      gap      omega  full diag
   1    -52.4042046 -0.524042E+02  0.235E-02   12.81       0.0  T
   2    -52.4042047 -0.121102E-06  0.139E-02   12.81       1.0  T
   3    -52.4042048 -0.191500E-07  0.630E-04   12.81      22.5  T
   4    -52.4042048 -0.361149E-08  0.294E-04   12.81      48.2  T
     SCC iter.                  ...        0 min,  0.014 sec
     gradient                   ...        0 min,  0.018 sec
 * total energy  :   -51.6330379 Eh     change       -0.4459928E-04 Eh
   gradient norm :     0.0012851 Eh/α   predicted    -0.3814410E-04 ( -14.47%)
   displ. norm   :     0.1456848 α      lambda       -0.1637695E-04
   maximum displ.:     0.0847723 α      in ANC's #5, #1, #4, ...

........................................................................
.............................. CYCLE   11 ..............................
........................................................................

 iter      E             dE          RMSdq      gap      omega  full diag
   1    -52.4050457 -0.524050E+02  0.135E-02   12.81       0.0  T
   2    -52.4050458 -0.781507E-07  0.795E-03   12.81       1.8  T
   3    -52.4050458 -0.652559E-08  0.464E-04   12.81      30.5  T
   4    -52.4050458 -0.198763E-08  0.178E-04   12.81      79.6  T
     SCC iter.                  ...        0 min,  0.012 sec
     gradient                   ...        0 min,  0.011 sec
 * total energy  :   -51.6330533 Eh     change       -0.1532584E-04 Eh
   gradient norm :     0.0008153 Eh/α   predicted    -0.8272975E-05 ( -46.02%)
   displ. norm   :     0.0688814 α      lambda       -0.1130062E-04
   maximum displ.:     0.0419798 α      in ANC's #1, #5, #9, ...

........................................................................
.............................. CYCLE   12 ..............................
........................................................................

 iter      E             dE          RMSdq      gap      omega  full diag
   1    -52.4053120 -0.524053E+02  0.751E-03   12.82       0.0  T
   2    -52.4053120 -0.145892E-07  0.442E-03   12.82       3.2  T
   3    -52.4053120 -0.242598E-08  0.240E-04   12.82      58.9  T
   4    -52.4053120 -0.761474E-09  0.109E-04   12.82     130.3  T
     SCC iter.                  ...        0 min,  0.006 sec
     gradient                   ...        0 min,  0.011 sec
 * total energy  :   -51.6330671 Eh     change       -0.1387254E-04 Eh
   gradient norm :     0.0010975 Eh/α   predicted    -0.5666159E-05 ( -59.16%)
   displ. norm   :     0.1718448 α      lambda       -0.2392581E-04
   maximum displ.:     0.1109351 α      in ANC's #1, #5, #9, ...

........................................................................
.............................. CYCLE   13 ..............................
........................................................................

 iter      E             dE          RMSdq      gap      omega  full diag
   1    -52.4050623 -0.524051E+02  0.171E-02   12.84       0.0  T
   2    -52.4050623 -0.505742E-07  0.101E-02   12.84       1.4  T
   3    -52.4050624 -0.127092E-07  0.506E-04   12.84      28.0  T
   4    -52.4050624 -0.267254E-08  0.246E-04   12.84      57.4  T
     SCC iter.                  ...        0 min,  0.014 sec
     gradient                   ...        0 min,  0.009 sec
 * total energy  :   -51.6330911 Eh     change       -0.2395503E-04 Eh
   gradient norm :     0.0012018 Eh/α   predicted    -0.1212033E-04 ( -49.40%)
   displ. norm   :     0.1185642 α      lambda       -0.1196818E-04
   maximum displ.:     0.0827314 α      in ANC's #1, #5, #9, ...

........................................................................
.............................. CYCLE   14 ..............................
........................................................................

 iter      E             dE          RMSdq      gap      omega  full diag
   1    -52.4049633 -0.524050E+02  0.115E-02   12.84       0.0  T
   2    -52.4049633 -0.199612E-07  0.684E-03   12.84       2.1  T
   3    -52.4049633 -0.530108E-08  0.316E-04   12.84      44.8  T
   4    -52.4049633 -0.843940E-09  0.155E-04   12.84      91.0  T
     SCC iter.                  ...        0 min,  0.006 sec
     gradient                   ...        0 min,  0.008 sec
 * total energy  :   -51.6331044 Eh     change       -0.1326996E-04 Eh
   gradient norm :     0.0008931 Eh/α   predicted    -0.6025135E-05 ( -54.60%)
   displ. norm   :     0.1494739 α      lambda       -0.1235633E-04
   maximum displ.:     0.1090537 α      in ANC's #1, #5, #2, ...

........................................................................
.............................. CYCLE   15 ..............................
........................................................................

 iter      E             dE          RMSdq      gap      omega  full diag
   1    -52.4045141 -0.524045E+02  0.128E-02   12.84       0.0  T
   2    -52.4045141 -0.323594E-07  0.762E-03   12.84       1.9  T
   3    -52.4045141 -0.681805E-08  0.348E-04   12.84      40.6  T
   4    -52.4045141 -0.793214E-09  0.173E-04   12.84      81.8  T
     SCC iter.                  ...        0 min,  0.005 sec
     gradient                   ...        0 min,  0.007 sec
 * total energy  :   -51.6331173 Eh     change       -0.1295488E-04 Eh
   gradient norm :     0.0005035 Eh/α   predicted    -0.6240442E-05 ( -51.83%)
   displ. norm   :     0.1160647 α      lambda       -0.9915391E-05
   maximum displ.:     0.0924968 α      in ANC's #1, #5, #2, ...

........................................................................
.............................. CYCLE   16 ..............................
........................................................................

 iter      E             dE          RMSdq      gap      omega  full diag
   1    -52.4046629 -0.524047E+02  0.102E-02   12.83       0.0  T
   2    -52.4046629 -0.165215E-07  0.608E-03   12.83       2.3  T
   3    -52.4046629 -0.387045E-08  0.286E-04   12.83      49.5  T
   4    -52.4046629 -0.967916E-09  0.144E-04   12.83      98.0  T
     SCC iter.                  ...        0 min,  0.005 sec
     gradient                   ...        0 min,  0.009 sec
 * total energy  :   -51.6331281 Eh     change       -0.1079605E-04 Eh
   gradient norm :     0.0007228 Eh/α   predicted    -0.4990339E-05 ( -53.78%)
   displ. norm   :     0.0600776 α      lambda       -0.8836229E-05
   maximum displ.:     0.0447278 α      in ANC's #1, #8, #12, ...

........................................................................
.............................. CYCLE   17 ..............................
........................................................................

 iter      E             dE          RMSdq      gap      omega  full diag
   1    -52.4046549 -0.524047E+02  0.571E-03   12.83       0.0  T
   2    -52.4046549 -0.895614E-08  0.339E-03   12.83       4.2  T
   3    -52.4046549 -0.146043E-08  0.191E-04   12.83      74.1  T
   4    -52.4046549 -0.431520E-09  0.891E-05   12.83     158.7  T
     SCC iter.                  ...        0 min,  0.006 sec
     gradient                   ...        0 min,  0.007 sec
 * total energy  :   -51.6331390 Eh     change       -0.1084010E-04 Eh
   gradient norm :     0.0007440 Eh/α   predicted    -0.4426190E-05 ( -59.17%)
   displ. norm   :     0.0977125 α      lambda       -0.1333486E-04
   maximum displ.:     0.0619349 α      in ANC's #1, #8, #6, ...

........................................................................
.............................. CYCLE   18 ..............................
........................................................................

 iter      E             dE          RMSdq      gap      omega  full diag
   1    -52.4047568 -0.524048E+02  0.953E-03   12.83       0.0  T
   2    -52.4047568 -0.174841E-07  0.567E-03   12.83       2.5  T
   3    -52.4047568 -0.356867E-08  0.290E-04   12.83      48.8  T
   4    -52.4047568 -0.104889E-08  0.140E-04   12.83     101.2  T
     SCC iter.                  ...        0 min,  0.006 sec
     gradient                   ...        0 min,  0.008 sec
 * total energy  :   -51.6331535 Eh     change       -0.1457998E-04 Eh
   gradient norm :     0.0006145 Eh/α   predicted    -0.6702429E-05 ( -54.03%)
   displ. norm   :     0.0871754 α      lambda       -0.8922642E-05
   maximum displ.:     0.0650431 α      in ANC's #1, #8, #6, ...

........................................................................
.............................. CYCLE   19 ..............................
........................................................................

 iter      E             dE          RMSdq      gap      omega  full diag
   1    -52.4046662 -0.524047E+02  0.845E-03   12.83       0.0  T
   2    -52.4046662 -0.132278E-07  0.501E-03   12.83       2.8  T
   3    -52.4046662 -0.268269E-08  0.257E-04   12.83      55.0  T
   4    -52.4046662 -0.901693E-09  0.122E-04   12.83     115.5  T
     SCC iter.                  ...        0 min,  0.005 sec
     gradient                   ...        0 min,  0.007 sec
 * total energy  :   -51.6331636 Eh     change       -0.1003747E-04 Eh
   gradient norm :     0.0004641 Eh/α   predicted    -0.4482411E-05 ( -55.34%)
   displ. norm   :     0.0668070 α      lambda       -0.6022788E-05
   maximum displ.:     0.0529373 α      in ANC's #1, #8, #6, ...

........................................................................
.............................. CYCLE   20 ..............................
........................................................................

 iter      E             dE          RMSdq      gap      omega  full diag
   1    -52.4047998 -0.524048E+02  0.638E-03   12.83       0.0  T
   2    -52.4047998 -0.637878E-08  0.378E-03   12.83       3.7  T
   3    -52.4047998 -0.169427E-08  0.162E-04   12.83      87.4  T
   4    -52.4047998 -0.175817E-09  0.803E-05   12.83     176.1  T
     SCC iter.                  ...        0 min,  0.006 sec
     gradient                   ...        0 min,  0.009 sec
 * total energy  :   -51.6331709 Eh     change       -0.7335988E-05 Eh
   gradient norm :     0.0003472 Eh/α   predicted    -0.3022768E-05 ( -58.80%)
   displ. norm   :     0.0589103 α      lambda       -0.5219037E-05
   maximum displ.:     0.0494469 α      in ANC's #1, #8, #2, ...
 * RMSD in coord.:     0.2559559 α      energy gain  -0.4038242E-02 Eh

generating ANC from model Hessian ...
Using Lindh-Hessian (1995)
 Shifting diagonal of input Hessian by   1.957789386074668E-002
 Lowest  eigenvalues of input Hessian
    0.000000    0.000000    0.000000    0.000000    0.000000    0.000000
    0.020000    0.020646    0.020930    0.021077    0.021391    0.022336
    0.023442    0.024215    0.025093    0.025978    0.026403    0.027114
 Highest eigenvalues
    1.254362    1.273796    1.289976    1.300319    1.313631    1.322229
 

........................................................................
.............................. CYCLE   21 ..............................
........................................................................

 iter      E             dE          RMSdq      gap      omega  full diag
   1    -52.4048336 -0.524048E+02  0.578E-03   12.84       0.0  T
   2    -52.4048336 -0.515259E-08  0.343E-03   12.84       4.1  T
   3    -52.4048336 -0.144267E-08  0.157E-04   12.84      89.9  T
   4    -52.4048336 -0.228759E-09  0.768E-05   12.84     184.0  T
     SCC iter.                  ...        0 min,  0.006 sec
     gradient                   ...        0 min,  0.007 sec
 * total energy  :   -51.6331774 Eh     change       -0.6501242E-05 Eh
   gradient norm :     0.0003429 Eh/α   predicted     0.0000000E+00 (-100.00%)
   displ. norm   :     0.0117784 α      lambda       -0.1699823E-06
   maximum displ.:     0.0077619 α      in ANC's #1, #4, #12, ...

........................................................................
.............................. CYCLE   22 ..............................
........................................................................

 iter      E             dE          RMSdq      gap      omega  full diag
   1    -52.4048790 -0.524049E+02  0.175E-03   12.83       0.0  T
   2    -52.4048790 -0.128522E-08  0.103E-03   12.83      13.7  T
   3    -52.4048790 -0.137824E-09  0.885E-05   12.83     159.9  T
   4    -52.4048790 -0.138733E-09  0.340E-05   12.83     415.7  T
     SCC iter.                  ...        0 min,  0.007 sec
     gradient                   ...        0 min,  0.007 sec
 * total energy  :   -51.6331797 Eh     change       -0.2300824E-05 Eh
   gradient norm :     0.0002032 Eh/α   predicted    -0.8787163E-06 ( -61.81%)
   displ. norm   :     0.0651105 α      lambda       -0.7473638E-05
   maximum displ.:     0.0456850 α      in ANC's #1, #4, #12, ...

   *** GEOMETRY OPTIMIZATION CONVERGED AFTER 22 ITERATIONS ***

------------------------------------------------------------------------
 total energy gain   :        -0.0040470 Eh       -2.5396 kcal/mol
 total RMSD          :         0.2564718 a0        0.1357 Å
 total power (kW/mol):        -0.4829778 (step)  -16.2400 (real)
------------------------------------------------------------------------

 ANCopt (total)                0 d,  0 h,  0 min,  0.654 sec
 optimizer setup                ...        0 min,  0.001 sec (  0.128%)
 model hessian                  ...        0 min,  0.082 sec ( 12.537%)
 ANC generation                 ...        0 min,  0.004 sec (  0.586%)
 coordinate transformation      ...        0 min,  0.001 sec (  0.098%)
 single point calculation       ...        0 min,  0.532 sec ( 81.277%)
 optimization log               ...        0 min,  0.004 sec (  0.560%)
 hessian update                 ...        0 min,  0.020 sec (  3.070%)
 rational function              ...        0 min,  0.004 sec (  0.615%)

================
 final structure:
================
50
 xtb: 6.6.1 (8d0f1dd)
C            0.74379990430160       -1.96499968649343        2.30362767085698
C            1.90542118499440       -2.65953476939466        1.60274220206964
C            1.74064260673519       -2.73678287542186        0.08349215647434
C            1.67924967951083       -1.38346721311513       -0.62764255052735
C            2.94058959475436       -0.54546904364210       -0.43006173828535
C            2.99050527977072        0.69783606652331       -1.32074989072802
C            1.82703913850803        1.67273605620943       -1.12626288788286
C            1.70213705254983        2.18177853588780        0.30812266040828
C            0.69247545359499        3.32115350522273        0.46331280711686
C           -0.72428867884231        2.99608689427440       -0.01546108279706
C           -1.32729322575628        1.75656288496801        0.64123337116692
C           -2.77751638953069        1.54670546174799        0.21186275004192
C           -3.38739415700034        0.24590078409803        0.73821152971337
C           -2.74276958446351       -1.03431469274503        0.20201146987412
C           -2.84228618024747       -1.18504426950318       -1.31431210918156
C           -2.30277184989404       -2.53206142323766       -1.78009223748717
H            0.87225110234346       -2.01246071083276        3.38284568129998
H           -0.19815866792219       -2.44741245963751        2.05026070769401
H            0.68336221243000       -0.91720915749140        2.02062324216224
H            2.83738422768332       -2.14685241149386        1.84623422978262
H            1.98699956366399       -3.67973631602483        1.98645824144078
H            2.57629247124943       -3.31071766145713       -0.32565523567013
H            0.82375579624634       -3.29002015481396       -0.13880312357054
H            0.80832545836184       -0.83115331026351       -0.27514610660673
H            1.53985278108804       -1.56468419254253       -1.69703372921261
H            3.81211220942820       -1.16463621692373       -0.65975479936228
H            3.02295419641000       -0.24036430616302        0.61325049640094
H            3.00503769654533        0.38271351416757       -2.36759667776105
H            3.92862588277798        1.22354853634068       -1.12347951930186
H            1.98210804304994        2.52693329519963       -1.79079231796272
H            0.89960136095750        1.18725554348368       -1.43018512344246
H            1.41806215135599        1.36265201083601        0.96895832972075
H            2.67884097833496        2.54409193644369        0.64018072313458
H            1.05076049267290        4.19079735924200       -0.09379784025369
H            0.65257068850763        3.60188902423624        1.51915040749584
H           -1.36284203256758        3.85735312295434        0.19885731420915
H           -0.72048801703677        2.85950951637789       -1.09880321022944
H           -1.27924221916290        1.85478210147673        1.72851542283797
H           -0.74240702406751        0.88291821910428        0.35735018503564
H           -3.37905228655554        2.38265174097297        0.57850740971114
H           -2.83633844789424        1.56252530865139       -0.87794837683892
H           -4.44940617197438        0.23392020806004        0.47933379245350
H           -3.31480888984740        0.23977097253461        1.82892958499158
H           -3.24264738228185       -1.88635500013884        0.67081821960227
H           -1.69385908524398       -1.07557154912455        0.49865248532366
H           -3.88697236343102       -1.08575916906677       -1.61874346479130
H           -2.27536724826629       -0.39143220946753       -1.80358446398148
H           -2.38381904261969       -2.62480190084694       -2.86086630922909
H           -2.86017041329006       -3.34743862030966       -1.32347783445968
H           -1.25528384993082       -2.63721427886201       -1.50530246145567
           -------------------------------------------------
          |                Final Singlepoint                |
           -------------------------------------------------

          ...................................................
          :                      SETUP                      :
          :.................................................:
          :  # basis functions                  98          :
          :  # atomic orbitals                  98          :
          :  # shells                           66          :
          :  # electrons                        98          :
          :  max. iterations                   250          :
          :  Hamiltonian                  GFN2-xTB          :
          :  restarted?                      false          :
          :  GBSA solvation                  false          :
          :  PC potential                    false          :
          :  electronic temp.          300.0000000     K    :
          :  accuracy                    1.0000000          :
          :  -> integral cutoff          0.2500000E+02      :
          :  -> integral neglect         0.1000000E-07      :
          :  -> SCF convergence          0.1000000E-05 Eh   :
          :  -> wf. convergence          0.1000000E-03 e    :
          :  Broyden damping             0.4000000          :
          ...................................................

 iter      E             dE          RMSdq      gap      omega  full diag
   1    -52.4048790 -0.524049E+02  0.765E-06   12.83       0.0  T
   2    -52.4048790 -0.120792E-12  0.429E-06   12.83    3298.4  T
   3    -52.4048790 -0.568434E-13  0.174E-06   12.83    8125.1  T

   *** convergence criteria satisfied after 3 iterations ***

         #    Occupation            Energy/Eh            Energy/eV
      -------------------------------------------------------------
         1        2.0000           -0.6240420             -16.9810
       ...           ...                  ...                  ...
        43        2.0000           -0.4187567             -11.3950
        44        2.0000           -0.4161248             -11.3233
        45        2.0000           -0.4151175             -11.2959
        46        2.0000           -0.4129119             -11.2359
        47        2.0000           -0.4096663             -11.1476
        48        2.0000           -0.4089290             -11.1275
        49        2.0000           -0.4079414             -11.1007 (HOMO)
        50                          0.0636790               1.7328 (LUMO)
        51                          0.0733006               1.9946
        52                          0.0762943               2.0761
        53                          0.0791776               2.1545
        54                          0.0818779               2.2280
       ...                                ...                  ...
        98                          0.3422948               9.3143
      -------------------------------------------------------------
                  HL-Gap            0.4716204 Eh           12.8334 eV
             Fermi-level           -0.1721312 Eh           -4.6839 eV

 SCC (total)                   0 d,  0 h,  0 min,  0.055 sec
 SCC setup                      ...        0 min,  0.001 sec (  1.650%)
 Dispersion                     ...        0 min,  0.000 sec (  0.361%)
 classical contributions        ...        0 min,  0.000 sec (  0.088%)
 integral evaluation            ...        0 min,  0.002 sec (  4.311%)
 iterations                     ...        0 min,  0.043 sec ( 78.770%)
 molecular gradient             ...        0 min,  0.007 sec ( 12.958%)
 printout                       ...        0 min,  0.001 sec (  1.797%)

         :::::::::::::::::::::::::::::::::::::::::::::::::::::
         ::                     SUMMARY                     ::
         :::::::::::::::::::::::::::::::::::::::::::::::::::::
         :: total energy             -51.633179716843 Eh    ::
         :: gradient norm              0.000203173342 Eh/a0 ::
         :: HOMO-LUMO gap             12.833445075906 eV    ::
         ::.................................................::
         :: SCC energy               -52.404878957639 Eh    ::
         :: -> isotropic ES            0.008132633085 Eh    ::
         :: -> anisotropic ES          0.016609702453 Eh    ::
         :: -> anisotropic XC          0.030463561540 Eh    ::
         :: -> dispersion             -0.040321194821 Eh    ::
         :: repulsion energy           0.770152499160 Eh    ::
         :: add. restraining           0.000000000000 Eh    ::
         :: total charge               0.000000000000 e     ::
         :::::::::::::::::::::::::::::::::::::::::::::::::::::

           ------------------------------------------------- 
          |                Numerical Hessian                |
           ------------------------------------------------- 
step length          :   0.00500
SCC accuracy         :   0.30000
Hessian scale factor :   1.00000
frozen atoms in %    :   0.00000    0
RMS gradient         :   0.00020
estimated CPU  time      0.69 min
estimated wall time      0.18 min

writing file <hessian>.

 projected vibrational frequencies (cm⁻¹)
eigval :       -0.00    -0.00    -0.00     0.00     0.00     0.00
eigval :       16.15    23.74    38.20    40.81    45.22    56.49
eigval :       64.63    77.88   110.81   137.75   157.82   177.47
eigval :      201.28   209.32   220.47   225.91   241.73   256.43
eigval :      265.68   277.75   296.74   310.11   348.18   399.15
eigval :      413.30   458.34   498.37   507.24   531.62   748.45
eigval :      754.99   763.68   783.99   802.17   831.71   839.32
eigval :      858.18   871.70   888.15   897.97   905.66   927.65
eigval :      937.95   954.58   987.01   994.01  1012.97  1027.72
eigval :     1044.26  1048.14  1062.75  1071.11  1085.37  1093.87
eigval :     1104.21  1115.24  1133.47  1146.29  1147.30  1151.90
eigval :     1152.77  1160.51  1164.56  1175.47  1181.97  1224.11
eigval :     1228.78  1245.79  1251.00  1263.32  1274.29  1279.58
eigval :     1282.10  1284.99  1287.12  1289.84  1292.30  1308.14
eigval :     1311.96  1321.84  1353.65  1355.29  1359.10  1361.92
eigval :     1363.14  1364.40  1372.92  1374.69  1376.06  1378.47
eigval :     1414.25  1416.47  1487.33  1487.67  1489.08  1490.76
eigval :     1492.53  1493.11  1495.56  1499.24  1500.93  1502.90
eigval :     1503.49  1505.68  1505.99  1507.48  1509.18  1510.61
eigval :     1512.11  1520.46  2951.85  2952.98  2953.37  2955.64
eigval :     2955.80  2956.49  2956.85  2957.34  2958.11  2959.18
eigval :     2962.62  2964.59  2968.07  2970.24  2972.75  2973.99
eigval :     2974.86  2977.02  2982.55  2987.36  2991.30  2993.97
eigval :     2996.38  2998.20  3000.60  3004.43  3007.31  3014.45
eigval :     3028.35  3028.81  3030.96  3031.96  3036.64  3042.98
           -------------------------------------------------
          |                Property Printout                |
           -------------------------------------------------

    * Orbital Energies and Occupations

         #    Occupation            Energy/Eh            Energy/eV
      -------------------------------------------------------------
         1        2.0000           -0.6240420             -16.9810
       ...           ...                  ...                  ...
        37        2.0000           -0.4388856             -11.9427
        38        2.0000           -0.4357056             -11.8562
        39        2.0000           -0.4304270             -11.7125
        40        2.0000           -0.4272028             -11.6248
        41        2.0000           -0.4253823             -11.5752
        42        2.0000           -0.4218703             -11.4797
        43        2.0000           -0.4187567             -11.3950
        44        2.0000           -0.4161248             -11.3233
        45        2.0000           -0.4151175             -11.2959
        46        2.0000           -0.4129119             -11.2359
        47        2.0000           -0.4096663             -11.1476
        48        2.0000           -0.4089290             -11.1275
        49        2.0000           -0.4079414             -11.1007 (HOMO)
        50                          0.0636790               1.7328 (LUMO)
        51                          0.0733006               1.9946
        52                          0.0762943               2.0761
        53                          0.0791776               2.1545
        54                          0.0818779               2.2280
        55                          0.0937888               2.5521
        56                          0.0973639               2.6494
        57                          0.1060254               2.8851
        58                          0.1086719               2.9571
        59                          0.1179577               3.2098
        60                          0.1208250               3.2878
       ...                                ...                  ...
        98                          0.3422948               9.3143
      -------------------------------------------------------------
                  HL-Gap            0.4716204 Eh           12.8334 eV
             Fermi-level           -0.1721312 Eh           -4.6839 eV

     #   Z          covCN         q      C6AA      α(0)
     1   6 C        3.751    -0.098    22.435     6.755
     2   6 C        3.799    -0.052    21.516     6.604
     3   6 C        3.801    -0.056    21.584     6.615
     4   6 C        3.801    -0.054    21.547     6.609
     5   6 C        3.801    -0.058    21.611     6.619
     6   6 C        3.801    -0.057    21.604     6.618
     7   6 C        3.801    -0.057    21.601     6.617
     8   6 C        3.801    -0.056    21.580     6.614
     9   6 C        3.800    -0.057    21.602     6.617
    10   6 C        3.802    -0.057    21.602     6.617
    11   6 C        3.802    -0.057    21.590     6.615
    12   6 C        3.802    -0.058    21.616     6.619
    13   6 C        3.801    -0.058    21.611     6.619
    14   6 C        3.802    -0.058    21.609     6.618
    15   6 C        3.800    -0.052    21.502     6.602
    16   6 C        3.752    -0.101    22.490     6.763
    17   1 H        0.925     0.028     2.608     2.526
    18   1 H        0.925     0.033     2.539     2.492
    19   1 H        0.925     0.034     2.535     2.490
    20   1 H        0.924     0.030     2.582     2.513
    21   1 H        0.924     0.025     2.653     2.547
    22   1 H        0.924     0.025     2.663     2.552
    23   1 H        0.924     0.027     2.635     2.539
    24   1 H        0.925     0.034     2.529     2.487
    25   1 H        0.924     0.026     2.649     2.545
    26   1 H        0.924     0.026     2.650     2.546
    27   1 H        0.925     0.034     2.533     2.489
    28   1 H        0.924     0.026     2.644     2.543
    29   1 H        0.924     0.026     2.651     2.546
    30   1 H        0.924     0.026     2.643     2.542
    31   1 H        0.925     0.035     2.515     2.480
    32   1 H        0.925     0.033     2.547     2.496
    33   1 H        0.924     0.026     2.641     2.541
    34   1 H        0.924     0.026     2.641     2.541
    35   1 H        0.924     0.027     2.635     2.538
    36   1 H        0.924     0.025     2.658     2.550
    37   1 H        0.924     0.029     2.599     2.521
    38   1 H        0.924     0.026     2.640     2.541
    39   1 H        0.925     0.036     2.496     2.471
    40   1 H        0.924     0.025     2.664     2.552
    41   1 H        0.924     0.030     2.580     2.512
    42   1 H        0.924     0.027     2.631     2.537
    43   1 H        0.924     0.028     2.613     2.528
    44   1 H        0.924     0.026     2.643     2.542
    45   1 H        0.924     0.034     2.534     2.489
    46   1 H        0.924     0.027     2.636     2.539
    47   1 H        0.924     0.031     2.570     2.507
    48   1 H        0.925     0.031     2.578     2.511
    49   1 H        0.925     0.030     2.582     2.513
    50   1 H        0.925     0.034     2.532     2.488

 Mol. C6AA /au·bohr⁶  :      16681.455925
 Mol. C8AA /au·bohr⁸  :     348810.451717
 Mol. α(0) /au        :        191.876502


Wiberg/Mayer (AO) data.
largest (>0.10) Wiberg bond orders for each atom

 ---------------------------------------------------------------------------
     #   Z sym  total        # sym  WBO       # sym  WBO       # sym  WBO
 ---------------------------------------------------------------------------
     1   6 C    3.997 --     2 C    1.020    17 H    0.988    18 H    0.986
                            19 H    0.984
     2   6 C    3.998 --     1 C    1.020     3 C    1.007    21 H    0.979
                            20 H    0.976
     3   6 C    3.998 --     2 C    1.007     4 C    1.007    22 H    0.978
                            23 H    0.976
     4   6 C    3.998 --     5 C    1.009     3 C    1.007    25 H    0.977
                            24 H    0.970
     5   6 C    3.998 --     4 C    1.009     6 C    1.006    26 H    0.977
                            27 H    0.974
     6   6 C    3.998 --     5 C    1.006     7 C    1.006    29 H    0.978
                            28 H    0.978
     7   6 C    3.998 --     8 C    1.009     6 C    1.006    30 H    0.977
                            31 H    0.974
     8   6 C    3.998 --     7 C    1.009     9 C    1.006    33 H    0.977
                            32 H    0.973
     9   6 C    3.997 --     8 C    1.006    10 C    1.006    35 H    0.978
                            34 H    0.978
    10   6 C    3.997 --    11 C    1.008     9 C    1.006    36 H    0.977
                            37 H    0.977
    11   6 C    3.998 --    10 C    1.008    12 C    1.008    38 H    0.978
                            39 H    0.968
    12   6 C    3.997 --    11 C    1.008    13 C    1.007    40 H    0.978
                            41 H    0.974
    13   6 C    3.997 --    14 C    1.007    12 C    1.007    42 H    0.978
                            43 H    0.978
    14   6 C    3.997 --    15 C    1.009    13 C    1.007    44 H    0.977
                            45 H    0.972
    15   6 C    3.998 --    16 C    1.019    14 C    1.009    46 H    0.979
                            47 H    0.976
    16   6 C    3.997 --    15 C    1.019    49 H    0.988    48 H    0.988
                            50 H    0.986
    17   1 H    0.999 --     1 C    0.988
    18   1 H    0.999 --     1 C    0.986
    19   1 H    0.999 --     1 C    0.984
    20   1 H    0.999 --     2 C    0.976
    21   1 H    0.999 --     2 C    0.979
    22   1 H    0.999 --     3 C    0.978
    23   1 H    0.999 --     3 C    0.976
    24   1 H    0.999 --     4 C    0.970
    25   1 H    0.999 --     4 C    0.977
    26   1 H    0.999 --     5 C    0.977
    27   1 H    0.999 --     5 C    0.974
    28   1 H    0.999 --     6 C    0.978
    29   1 H    0.999 --     6 C    0.978
    30   1 H    0.999 --     7 C    0.977
    31   1 H    0.999 --     7 C    0.974
    32   1 H    0.999 --     8 C    0.973
    33   1 H    0.999 --     8 C    0.977
    34   1 H    0.999 --     9 C    0.978
    35   1 H    0.999 --     9 C    0.978
    36   1 H    0.999 --    10 C    0.977
    37   1 H    0.999 --    10 C    0.977
    38   1 H    0.999 --    11 C    0.978
    39   1 H    0.999 --    11 C    0.968
    40   1 H    0.999 --    12 C    0.978
    41   1 H    0.999 --    12 C    0.974
    42   1 H    0.999 --    13 C    0.978
    43   1 H    0.999 --    13 C    0.978
    44   1 H    0.999 --    14 C    0.977
    45   1 H    0.999 --    14 C    0.972
    46   1 H    0.999 --    15 C    0.979
    47   1 H    0.999 --    15 C    0.976
    48   1 H    0.999 --    16 C    0.988
    49   1 H    0.999 --    16 C    0.988
    50   1 H    0.999 --    16 C    0.986
 ---------------------------------------------------------------------------

Topologies differ in total number of bonds
Writing topology from bond orders to xtbtopo.mol

molecular dipole:
                 x           y           z       tot (Debye)
 q only:        0.011      -0.016       0.007
   full:        0.011      -0.011       0.006       0.043
molecular quadrupole (traceless):
                xx          xy          yy          xz          yz          zz
 q only:       -0.246      -0.046      -0.161       0.209      -0.148       0.406
  q+dip:        0.210       0.596      -1.043       0.396      -0.120       0.832
   full:        0.041       0.270      -0.516       0.241      -0.123       0.474

           -------------------------------------------------
          |                Geometry Summary                 |
           -------------------------------------------------

      molecular mass/u    :      226.4417599
   center of mass at/Å    :        0.0004391       0.0032623      -0.0014983
  moments of inertia/u·Å² :        0.1215229E+04   0.1403899E+04   0.2044355E+04
rotational constants/cm⁻¹ :        0.1387198E-01   0.1200773E-01   0.8245943E-02

 * 49 selected distances

     #   Z          #   Z                                           value/Å
     1   6 C        2   6 C                                       1.5241338
     2   6 C        3   6 C                                       1.5301112
     3   6 C        4   6 C                                       1.5300148
     4   6 C        5   6 C                                       1.5271732
     5   6 C        6   6 C                                       1.5302369
     6   6 C        7   6 C                                       1.5303297
     7   6 C        8   6 C                                       1.5271500
     8   6 C        9   6 C                                       1.5302537
     9   6 C       10   6 C                                       1.5303966 (max)
    10   6 C       11   6 C                                       1.5268537
    11   6 C       12   6 C                                       1.5269404
    12   6 C       13   6 C                                       1.5300612
    13   6 C       14   6 C                                       1.5303606
    14   6 C       15   6 C                                       1.5270431
    15   6 C       16   6 C                                       1.5239693
     1   6 C       17   1 H                                       1.0878713
     1   6 C       18   1 H                                       1.0882110
     1   6 C       19   1 H                                       1.0870186 (min)
     2   6 C       20   1 H                                       1.0911860
     2   6 C       21   1 H                                       1.0930254
     3   6 C       22   1 H                                       1.0932125
     3   6 C       23   1 H                                       1.0936948
     4   6 C       24   1 H                                       1.0898686
     4   6 C       25   1 H                                       1.0935579
     5   6 C       26   1 H                                       1.0934710
     5   6 C       27   1 H                                       1.0901254
     6   6 C       28   1 H                                       1.0933443
     6   6 C       29   1 H                                       1.0933251
     7   6 C       30   1 H                                       1.0932972
     7   6 C       31   1 H                                       1.0900464
     8   6 C       32   1 H                                       1.0901242
     8   6 C       33   1 H                                       1.0933821
     9   6 C       34   1 H                                       1.0931702
     9   6 C       35   1 H                                       1.0932512
    10   6 C       36   1 H                                       1.0933721
    10   6 C       37   1 H                                       1.0919241
    11   6 C       38   1 H                                       1.0927664
    11   6 C       39   1 H                                       1.0890072
    12   6 C       40   1 H                                       1.0931972
    12   6 C       41   1 H                                       1.0915122
    13   6 C       42   1 H                                       1.0931747
    13   6 C       43   1 H                                       1.0931479
    14   6 C       44   1 H                                       1.0934489
    14   6 C       45   1 H                                       1.0908306
    15   6 C       46   1 H                                       1.0926598
    15   6 C       47   1 H                                       1.0911484
    16   6 C       48   1 H                                       1.0877694
    16   6 C       49   1 H                                       1.0881315
    16   6 C       50   1 H                                       1.0880248

 * 2 distinct bonds (by element types)

   Z      Z             #   av. dist./Å        max./Å        min./Å
   1 H    6 C          34     1.0915088     1.0936948     1.0870186
   6 C    6 C          15     1.5283352     1.5303966     1.5239693

           -------------------------------------------------
          |               Frequency Printout                |
           -------------------------------------------------
 projected vibrational frequencies (cm⁻¹)
eigval :       -0.00    -0.00    -0.00     0.00     0.00     0.00
eigval :       16.15    23.74    38.20    40.81    45.22    56.49
eigval :       64.63    77.88   110.81   137.75   157.82   177.47
eigval :      201.28   209.32   220.47   225.91   241.73   256.43
eigval :      265.68   277.75   296.74   310.11   348.18   399.15
eigval :      413.30   458.34   498.37   507.24   531.62   748.45
eigval :      754.99   763.68   783.99   802.17   831.71   839.32
eigval :      858.18   871.70   888.15   897.97   905.66   927.65
eigval :      937.95   954.58   987.01   994.01  1012.97  1027.72
eigval :     1044.26  1048.14  1062.75  1071.11  1085.37  1093.87
eigval :     1104.21  1115.24  1133.47  1146.29  1147.30  1151.90
eigval :     1152.77  1160.51  1164.56  1175.47  1181.97  1224.11
eigval :     1228.78  1245.79  1251.00  1263.32  1274.29  1279.58
eigval :     1282.10  1284.99  1287.12  1289.84  1292.30  1308.14
eigval :     1311.96  1321.84  1353.65  1355.29  1359.10  1361.92
eigval :     1363.14  1364.40  1372.92  1374.69  1376.06  1378.47
eigval :     1414.25  1416.47  1487.33  1487.67  1489.08  1490.76
eigval :     1492.53  1493.11  1495.56  1499.24  1500.93  1502.90
eigval :     1503.49  1505.68  1505.99  1507.48  1509.18  1510.61
eigval :     1512.11  1520.46  2951.85  2952.98  2953.37  2955.64
eigval :     2955.80  2956.49  2956.85  2957.34  2958.11  2959.18
eigval :     2962.62  2964.59  2968.07  2970.24  2972.75  2973.99
eigval :     2974.86  2977.02  2982.55  2987.36  2991.30  2993.97
eigval :     2996.38  2998.20  3000.60  3004.43  3007.31  3014.45
eigval :     3028.35  3028.81  3030.96  3031.96  3036.64  3042.98
 reduced masses (amu)
   1:  9.96   2: 10.08   3: 10.25   4: 10.02   5: 10.20   6: 10.27   7:  9.35   8:  8.92
   9:  9.43  10:  9.08  11:  9.43  12:  8.05  13:  7.23  14:  8.20  15:  7.67  16:  8.53
  17:  5.28  18:  7.68  19:  7.10  20:  7.53  21:  8.39  22:  4.66  23:  5.49  24:  6.87
  25:  5.61  26:  6.49  27:  7.91  28:  6.77  29:  7.46  30:  7.80  31:  8.50  32:  8.27
  33:  8.22  34:  8.30  35:  7.89  36:  2.54  37:  2.36  38:  2.78  39:  2.62  40:  3.03
  41:  3.86  42:  5.07  43:  5.47  44:  5.16  45:  6.33  46:  7.28  47:  5.46  48:  5.79
  49:  5.50  50:  7.14  51:  6.11  52:  5.82  53:  6.03  54:  5.75  55:  5.23  56:  5.98
  57:  5.85  58:  4.76  59:  5.99  60:  7.83  61:  3.93  62:  5.19  63:  8.46  64:  8.06
  65:  7.14  66:  8.34  67:  7.47  68:  7.48  69:  6.43  70:  5.33  71:  5.34  72:  4.58
  73:  4.54  74:  3.88  75:  3.72  76:  3.35  77:  2.82  78:  2.91  79:  2.34  80:  2.44
  81:  1.97  82:  2.76  83:  2.22  84:  3.52  85:  3.20  86:  3.26  87:  4.40  88:  4.20
  89:  4.51  90:  4.66  91:  4.70  92:  4.81  93:  5.13  94:  5.00  95:  5.20  96:  5.28
  97:  3.24  98:  3.16  99:  1.87 100:  1.87 101:  1.92 102:  1.86 103:  1.93 104:  1.94
 105:  1.90 106:  1.96 107:  1.80 108:  1.88 109:  1.87 110:  1.81 111:  1.68 112:  1.68
 113:  1.76 114:  1.82 115:  1.72 116:  1.73 117:  1.92 118:  1.95 119:  1.94 120:  1.83
 121:  1.86 122:  1.89 123:  1.83 124:  1.83 125:  1.85 126:  1.74 127:  1.77 128:  1.81
 129:  1.75 130:  1.75 131:  1.58 132:  1.57 133:  1.56 134:  1.57 135:  1.59 136:  1.61
 137:  1.59 138:  1.65 139:  1.66 140:  1.68 141:  1.63 142:  1.71 143:  1.63 144:  1.68
 145:  1.93 146:  1.90 147:  1.93 148:  1.82 149:  1.28 150:  1.43
 IR intensities (km·mol⁻¹)
   1:  0.00   2:  0.00   3:  0.00   4:  0.00   5:  0.00   6:  0.00   7:  0.00   8:  0.00
   9:  0.01  10:  0.00  11:  0.01  12:  0.00  13:  0.01  14:  0.01  15:  0.02  16:  0.08
  17:  0.04  18:  0.11  19:  0.05  20:  0.07  21:  0.03  22:  0.05  23:  0.03  24:  0.04
  25:  0.03  26:  0.38  27:  0.68  28:  0.38  29:  0.37  30:  0.39  31:  0.08  32:  0.17
  33:  0.73  34:  1.33  35:  0.64  36:  1.15  37: 13.71  38: 26.66  39:  6.48  40:  4.29
  41:  0.90  42:  0.54  43:  0.17  44:  0.29  45:  0.78  46:  0.14  47:  0.52  48:  2.82
  49:  1.18  50:  1.25  51:  1.95  52:  1.99  53:  0.07  54:  1.28  55:  0.51  56:  1.66
  57:  1.11  58:  1.24  59:  1.08  60:  0.14  61:  0.13  62:  0.81  63:  0.41  64:  0.22
  65:  0.70  66:  0.46  67:  0.40  68:  0.39  69:  0.63  70:  0.21  71:  1.07  72:  1.11
  73:  0.29  74:  0.12  75:  0.08  76:  0.79  77:  0.21  78:  0.14  79:  0.47  80:  0.39
  81:  0.15  82:  0.18  83:  0.04  84:  1.27  85:  0.65  86:  0.38  87:  2.10  88:  0.10
  89:  4.83  90:  4.53  91:  2.78  92:  0.58  93:  0.08  94:  0.85  95:  0.51  96:  1.04
  97:  1.71  98:  0.31  99:  0.19 100:  0.20 101:  0.50 102:  0.15 103:  0.57 104:  0.05
 105:  0.16 106:  0.76 107:  1.44 108:  0.04 109:  0.03 110:  0.54 111:  1.87 112:  1.57
 113:  0.33 114:  0.76 115:  0.37 116:  1.10 117: 21.10 118: 11.63 119: 12.29 120: 10.25
 121: 17.25 122: 23.68 123: 15.74 124: 37.08 125: 25.28 126: 20.33 127: 46.80 128: 17.07
 129: 21.79 130: 25.25 131: 57.12 132:162.63 133:126.35 134: 94.57 135: 15.29 136: 21.21
 137: 29.11 138: 63.15 139: 59.12 140: 39.56 141: 21.44 142: 65.35 143:155.79 144: 66.06
 145: 58.27 146: 79.35 147: 69.27 148: 39.12 149: 26.30 150: 35.76
 Raman intensities (amu)
   1:  0.00   2:  0.00   3:  0.00   4:  0.00   5:  0.00   6:  0.00   7:  0.00   8:  0.00
   9:  0.00  10:  0.00  11:  0.00  12:  0.00  13:  0.00  14:  0.00  15:  0.00  16:  0.00
  17:  0.00  18:  0.00  19:  0.00  20:  0.00  21:  0.00  22:  0.00  23:  0.00  24:  0.00
  25:  0.00  26:  0.00  27:  0.00  28:  0.00  29:  0.00  30:  0.00  31:  0.00  32:  0.00
  33:  0.00  34:  0.00  35:  0.00  36:  0.00  37:  0.00  38:  0.00  39:  0.00  40:  0.00
  41:  0.00  42:  0.00  43:  0.00  44:  0.00  45:  0.00  46:  0.00  47:  0.00  48:  0.00
  49:  0.00  50:  0.00  51:  0.00  52:  0.00  53:  0.00  54:  0.00  55:  0.00  56:  0.00
  57:  0.00  58:  0.00  59:  0.00  60:  0.00  61:  0.00  62:  0.00  63:  0.00  64:  0.00
  65:  0.00  66:  0.00  67:  0.00  68:  0.00  69:  0.00  70:  0.00  71:  0.00  72:  0.00
  73:  0.00  74:  0.00  75:  0.00  76:  0.00  77:  0.00  78:  0.00  79:  0.00  80:  0.00
  81:  0.00  82:  0.00  83:  0.00  84:  0.00  85:  0.00  86:  0.00  87:  0.00  88:  0.00
  89:  0.00  90:  0.00  91:  0.00  92:  0.00  93:  0.00  94:  0.00  95:  0.00  96:  0.00
  97:  0.00  98:  0.00  99:  0.00 100:  0.00 101:  0.00 102:  0.00 103:  0.00 104:  0.00
 105:  0.00 106:  0.00 107:  0.00 108:  0.00 109:  0.00 110:  0.00 111:  0.00 112:  0.00
 113:  0.00 114:  0.00 115:  0.00 116:  0.00 117:  0.00 118:  0.00 119:  0.00 120:  0.00
 121:  0.00 122:  0.00 123:  0.00 124:  0.00 125:  0.00 126:  0.00 127:  0.00 128:  0.00
 129:  0.00 130:  0.00 131:  0.00 132:  0.00 133:  0.00 134:  0.00 135:  0.00 136:  0.00
 137:  0.00 138:  0.00 139:  0.00 140:  0.00 141:  0.00 142:  0.00 143:  0.00 144:  0.00
 145:  0.00 146:  0.00 147:  0.00 148:  0.00 149:  0.00 150:  0.00
 output can be read by thermo (or use thermo option).
 writing <g98.out> molden fake output.
 recommended (thermochemical) frequency scaling factor: 1.0
           -------------------------------------------------
          |             Thermodynamic Functions             |
           -------------------------------------------------

Molecule has no symmetry elements
It seems to be the C1 point group
c1  symmetry found (for desy threshold:  0.10E+00) used in thermo

          ...................................................
          :                      SETUP                      :
          :.................................................:
          :  # frequencies                         144      :
          :  # imaginary freq.                       0      :
          :  linear?                             false      :
          :  only rotor calc.                    false      :
          :  symmetry                               c1      :
          :  rotational number                       1      :
          :  scaling factor                  1.0000000      :
          :  rotor cutoff                   50.0000000 cm⁻¹ :
          :  imag. cutoff                  -20.0000000 cm⁻¹ :
          :.................................................:

    mode    ω/cm⁻¹     T·S(HO)/kcal·mol⁻¹    T·S(FR)/kcal·mol⁻¹   T·S(vib)
   ------------------------------------------------------------------------
       1     16.15    -2.10447 (  1.08%)    -1.39108 ( 98.92%)    -1.39877
       2     23.74    -1.87658 (  4.83%)    -1.27711 ( 95.17%)    -1.30609
       3     38.20    -1.59523 ( 25.41%)    -1.13623 ( 74.59%)    -1.25285
       4     40.81    -1.55618 ( 30.73%)    -1.11665 ( 69.27%)    -1.25174
       5     45.22    -1.49564 ( 40.07%)    -1.08628 ( 59.93%)    -1.25033
       6     56.49    -1.36439 ( 61.97%)    -1.02034 ( 38.03%)    -1.23354
       7     64.63    -1.28524 ( 73.62%)    -0.98049 ( 26.38%)    -1.20485
       8     77.88    -1.17582 ( 85.48%)    -0.92525 ( 14.52%)    -1.13942
       9    110.81    -0.97038 ( 96.02%)    -0.82078 (  3.98%)    -0.96443
      10    137.75    -0.84521 ( 98.29%)    -0.75630 (  1.71%)    -0.84369
      11    157.82    -0.76797 ( 99.00%)    -0.71603 (  1.00%)    -0.76745
      12    177.47    -0.70209 ( 99.37%)    -0.68125 (  0.63%)    -0.70196
      13    201.28    -0.63249 ( 99.62%)    -0.64397 (  0.38%)    -0.63253
      14    209.32    -0.61108 ( 99.68%)    -0.63236 (  0.32%)    -0.61115
      15    220.47    -0.58296 ( 99.74%)    -0.61699 (  0.26%)    -0.58305
      16    225.91    -0.56983 ( 99.76%)    -0.60977 (  0.24%)    -0.56993
      17    241.73    -0.53373 ( 99.82%)    -0.58972 (  0.18%)    -0.53383
      18    256.43    -0.50266 ( 99.86%)    -0.57223 (  0.14%)    -0.50277
      19    265.68    -0.48423 ( 99.87%)    -0.56173 (  0.13%)    -0.48433
      20    277.75    -0.46137 ( 99.90%)    -0.54857 (  0.10%)    -0.46147
      21    296.74    -0.42792 ( 99.92%)    -0.52898 (  0.08%)    -0.42800
   ------------------------------------------------------------------------

   temp. (K)  partition function   enthalpy   heat capacity  entropy
                                   cal/mol     cal/K/mol   cal/K/mol   J/K/mol
 298.15  VIB  0.240E+10            11317.116     65.541     72.755
         ROT  0.451E+07              888.752      2.981     33.430
         INT  0.108E+17            12205.868     68.522    106.185
         TR   0.330E+28             1481.254      4.968     42.135
         TOT                       13687.1220    73.4903   148.3203   620.5721

       T/K    H(0)-H(T)+PV         H(T)/Eh          T*S/Eh         G(T)/Eh
   ------------------------------------------------------------------------
    298.15    0.218118E-01    0.492443E+00    0.704718E-01    0.421971E+00
   ------------------------------------------------------------------------

         :::::::::::::::::::::::::::::::::::::::::::::::::::::
         ::                  THERMODYNAMIC                  ::
         :::::::::::::::::::::::::::::::::::::::::::::::::::::
         :: total free energy         -51.211208362186 Eh   ::
         ::.................................................::
         :: total energy              -51.633179716843 Eh   ::
         :: zero point energy           0.470631289318 Eh   ::
         :: G(RRHO) w/o ZPVE           -0.048659934662 Eh   ::
         :: G(RRHO) contrib.            0.421971354656 Eh   ::
         :::::::::::::::::::::::::::::::::::::::::::::::::::::
 
 normal mode %tage of torsion character
   1:  0.00   2:  0.00   3:  0.00   4:  0.00   5:  0.00   6:  0.00   7:  0.31   8:  0.40
   9:  0.35  10:  0.36  11:  0.26  12:  0.47  13:  0.43  14:  0.46  15:  0.61  16:  0.46
  17:  0.64  18:  0.56  19:  0.61  20:  0.58  21:  0.44  22:  0.60  23:  0.71  24:  0.59
  25:  0.65  26:  0.63  27:  0.45  28:  0.60  29:  0.48  30:  0.30  31:  0.19  32:  0.22
  33:  0.22  34:  0.21  35:  0.28  36:  0.58  37:  0.57  38:  0.56  39:  0.53  40:  0.50
  41:  0.43  42:  0.41  43:  0.29  44:  0.35  45:  0.34  46:  0.26  47:  0.36  48:  0.25
  49:  0.33  50:  0.29  51:  0.29  52:  0.25  53:  0.37  54:  0.22  55:  0.28  56:  0.30
  57:  0.29  58:  0.32  59:  0.34  60:  0.15  61:  0.33  62:  0.35  63:  0.10  64:  0.22
  65:  0.32  66:  0.18  67:  0.37  68:  0.18  69:  0.27  70:  0.25  71:  0.22  72:  0.43
  73:  0.37  74:  0.31  75:  0.32  76:  0.23  77:  0.27  78:  0.15  79:  0.14  80:  0.13
  81:  0.11  82:  0.16  83:  0.06  84:  0.14  85:  0.11  86:  0.09  87:  0.08  88:  0.08
  89:  0.11  90:  0.11  91:  0.10  92:  0.12  93:  0.07  94:  0.07  95:  0.07  96:  0.06
  97:  0.00  98:  0.00  99:  0.70 100:  0.61 101:  0.65 102:  0.66 103:  0.65 104:  0.66
 105:  0.63 106:  0.60 107:  0.69 108:  0.66 109:  0.67 110:  0.68 111:  0.79 112:  0.77
 113:  0.73 114:  0.69 115:  0.79 116:  0.77 117:  0.23 118:  0.21 119:  0.24 120:  0.26
 121:  0.24 122:  0.19 123:  0.25 124:  0.22 125:  0.23 126:  0.10 127:  0.18 128:  0.14
 129:  0.08 130:  0.05 131:  0.02 132:  0.02 133:  0.02 134:  0.01 135:  0.03 136:  0.02
 137:  0.09 138:  0.03 139:  0.04 140:  0.04 141:  0.07 142:  0.03 143:  0.11 144:  0.07
 145:  0.05 146:  0.04 147:  0.04 148:  0.05 149:  0.00 150:  0.02
 recommended # of modes for mode following           4

optimized geometry written to: xtbopt.xyz


           -------------------------------------------------
          | TOTAL ENERGY              -51.633179716843 Eh   |
          | TOTAL ENTHALPY            -51.140736610181 Eh   |
          | TOTAL FREE ENERGY         -51.211208362186 Eh   |
          | GRADIENT NORM               0.000203172029 Eh/α |
          | HOMO-LUMO GAP              12.833445037109 eV   |
           -------------------------------------------------

------------------------------------------------------------------------
 * finished run on 2024/04/23 at 12:10:49.684     
------------------------------------------------------------------------
 total:
 * wall-time:     0 d,  0 h,  0 min,  3.567 sec
 *  cpu-time:     0 d,  0 h,  0 min, 13.336 sec
 * ratio c/w:     3.739 speedup
 SCF:
 * wall-time:     0 d,  0 h,  0 min,  0.043 sec
 *  cpu-time:     0 d,  0 h,  0 min,  0.147 sec
 * ratio c/w:     3.443 speedup
 ANC optimizer:
 * wall-time:     0 d,  0 h,  0 min,  0.719 sec
 *  cpu-time:     0 d,  0 h,  0 min,  2.307 sec
 * ratio c/w:     3.206 speedup
 analytical hessian:
 * wall-time:     0 d,  0 h,  0 min,  2.727 sec
 *  cpu-time:     0 d,  0 h,  0 min, 10.657 sec
 * ratio c/w:     3.908 speedup

