50
 energy: -51.629132673055 gnorm: 0.036333011656 xtb: 6.6.1 (8d0f1dd)
C            0.61487600000000       -1.80725300000000        2.28676100000000
C            1.77278900000000       -2.55049900000000        1.63970700000000
C            1.62162400000000       -2.72072700000000        0.12371700000000
C            1.60862700000000       -1.40615300000000       -0.66419400000000
C            2.88615300000000       -0.58294300000000       -0.49680600000000
C            2.94279600000000        0.66124900000000       -1.38894900000000
C            1.81212400000000        1.66663600000000       -1.14583200000000
C            1.73157400000000        2.15921400000000        0.30013400000000
C            0.73016800000000        3.29998400000000        0.51160800000000
C           -0.69576700000000        2.98553300000000        0.04828300000000
C           -1.29295400000000        1.73392300000000        0.69080800000000
C           -2.74175600000000        1.48597200000000        0.26951200000000
C           -3.31195100000000        0.16043300000000        0.78335200000000
C           -2.63430100000000       -1.08320200000000        0.19796000000000
C           -2.77521400000000       -1.20637700000000       -1.32023700000000
C           -2.16029400000000       -2.48586200000000       -1.86495200000000
H            0.73347100000000       -1.72751000000000        3.37031600000000
H           -0.33337900000000       -2.31509200000000        2.09971400000000
H            0.52239200000000       -0.79172400000000        1.89900300000000
H            2.71731600000000       -2.03592200000000        1.85923300000000
H            1.87978700000000       -3.53866100000000        2.11036100000000
H            2.43476600000000       -3.35279200000000       -0.25775400000000
H            0.70156200000000       -3.28436800000000       -0.07960900000000
H            0.74195700000000       -0.80623900000000       -0.36720700000000
H            1.45494200000000       -1.61228600000000       -1.73197100000000
H            3.75286800000000       -1.22621400000000       -0.69992100000000
H            2.99801500000000       -0.28526100000000        0.55219000000000
H            2.93706900000000        0.34800700000000       -2.44148800000000
H            3.90651200000000        1.16849000000000       -1.24638000000000
H            1.93357400000000        2.53148800000000       -1.81183900000000
H            0.85405100000000        1.22006300000000       -1.43753200000000
H            1.47598200000000        1.32125400000000        0.95908000000000
H            2.73100300000000        2.47669600000000        0.62655300000000
H            1.09320900000000        4.19647400000000       -0.00876300000000
H            0.70913000000000        3.57493600000000        1.57473900000000
H           -1.35237700000000        3.84215700000000        0.25158100000000
H           -0.71412300000000        2.87276900000000       -1.04302100000000
H           -1.22962200000000        1.80693000000000        1.78363400000000
H           -0.68181800000000        0.86502700000000        0.42761600000000
H           -3.36213300000000        2.32383400000000        0.61513500000000
H           -2.81357800000000        1.52020200000000       -0.82387900000000
H           -4.38723200000000        0.11195400000000        0.56597500000000
H           -3.23803400000000        0.14264600000000        1.87881000000000
H           -3.04450700000000       -1.98715100000000        0.66821600000000
H           -1.57167100000000       -1.08984500000000        0.46261400000000
H           -3.83862100000000       -1.15322800000000       -1.58999600000000
H           -2.31338700000000       -0.33728300000000       -1.80676200000000
H           -2.28153600000000       -2.57176500000000       -2.94750100000000
H           -2.61732600000000       -3.36860400000000       -1.41287400000000
H           -1.09118200000000       -2.53233100000000       -1.65115500000000
50
 energy: -51.632183808117 gnorm: 0.015838544621 xtb: 6.6.1 (8d0f1dd)
C            0.61521352401457       -1.80882313054929        2.28518549623234
C            1.77680359484526       -2.54814808022476        1.63910612099015
C            1.62529547193277       -2.71469493218443        0.12507673413772
C            1.60853083451911       -1.40206119003484       -0.66145970619006
C            2.88585898959706       -0.58105896837394       -0.49224542440353
C            2.93852404622278        0.66099320235476       -1.38383936770492
C            1.80743695139882        1.66373648923070       -1.14475069501568
C            1.72838939320200        2.15476251199529        0.30052928393861
C            0.72720909331325        3.29363805351211        0.50702332582958
C           -0.69799152764826        2.98094602979640        0.04518018645175
C           -1.29100448063493        1.73173081377049        0.69340756306649
C           -2.73717365470104        1.48854694944831        0.26627416494564
C           -3.30554121834789        0.16251155286929        0.77671134100670
C           -2.63178237247148       -1.08174866897540        0.19344281548600
C           -2.77963422569326       -1.20366813304868       -1.32241556490940
C           -2.16241128689216       -2.48606690094959       -1.85785578740880
H            0.74843304426312       -1.74232619243301        3.36469615328705
H           -0.32657954326984       -2.32334071265345        2.09475393821704
H            0.53153070901839       -0.79293753740257        1.90292792562363
H            2.71360042459243       -2.02710872788490        1.85832528936533
H            1.86295692388031       -3.54193760063108        2.09363780478333
H            2.44663084795242       -3.33856528617708       -0.24474948262359
H            0.69859058710857       -3.26383994907415       -0.07673542967748
H            0.74529236082728       -0.80724702550288       -0.35543492676224
H            1.46919585282855       -1.62762355808529       -1.72500020469087
H            3.74797197353407       -1.21814109798671       -0.72068736933055
H            2.99214046055096       -0.27532603534052        0.55133463159449
H            2.91661306160737        0.34852305561402       -2.43397719470321
H            3.89937441114486        1.16382232162874       -1.22588422180030
H            1.95369208015515        2.52548486691101       -1.80577860147899
H            0.85652287210515        1.20831684089133       -1.43237325401370
H            1.46376530482394        1.32293455030422        0.95791665027273
H            2.72112786479740        2.49564141167147        0.61581212015113
H            1.08182439069769        4.18301385900716       -0.02598554188254
H            0.70835687399833        3.55316523105248        1.57157801447671
H           -1.33975911195833        3.84028870957394        0.27039240658424
H           -0.71059381841348        2.86280033000596       -1.04295053301501
H           -1.23878633694574        1.81822536735482        1.78410504466306
H           -0.68732379970980        0.86728169078768        0.41199511888315
H           -3.35999514184155        2.31162076713503        0.63421917585751
H           -2.80349926441574        1.51726408041101       -0.82515246503070
H           -4.37609251350706        0.12250350351689        0.54670035782315
H           -3.21745270858841        0.13618792571092        1.86858526169599
H           -3.06559661798987       -1.97194480891443        0.66315671185484
H           -1.57069398287702       -1.08405162638097        0.45256709068936
H           -3.84234637419193       -1.16582622019946       -1.58617519951442
H           -2.29971496618843       -0.34829717498928       -1.80751911981630
H           -2.28989550753713       -2.55867769208943       -2.93764241092562
H           -2.62668972092720       -3.36194242666304       -1.40463143609201
H           -1.09474976818105       -2.52195743780483       -1.64340679091782
50
 energy: -51.632680586630 gnorm: 0.002760313218 xtb: 6.6.1 (8d0f1dd)
C            0.61700157127269       -1.81090083131108        2.28883165720896
C            1.77999389510981       -2.54962633061294        1.64013518968317
C            1.62926668928052       -2.71210391434546        0.12624181759602
C            1.61036035417789       -1.40004198643901       -0.66002624411734
C            2.88731808686946       -0.58034772803253       -0.49054758983026
C            2.93759771563121        0.66137541112718       -1.38205469398659
C            1.80540583297371        1.66272393101081       -1.14444895262568
C            1.72700880934666        2.15355062765968        0.29987012865374
C            0.72531903143228        3.29187166595723        0.50410044348683
C           -0.70060129942061        2.98016532820095        0.04467104473124
C           -1.28991032256330        1.73074096488126        0.69410589388227
C           -2.73567639601545        1.49228575892975        0.26593650927738
C           -3.30324808584166        0.16488918311127        0.77301076184018
C           -2.63384221973658       -1.08074567741723        0.18895055154836
C           -2.78294852572938       -1.20185732236100       -1.32565766604367
C           -2.16542778511121       -2.48880902812725       -1.85557260227031
H            0.75687223982896       -1.75526693389189        3.36642725795825
H           -0.32060102996519       -2.32738121010782        2.09299717769694
H            0.53804514829520       -0.79438038920488        1.91178771976412
H            2.71224059007834       -2.02721079758271        1.86102277614602
H            1.85474396603459       -3.54608847417785        2.08402196160874
H            2.45417712678449       -3.32990612509109       -0.23905436514788
H            0.70025989454780       -3.25368427935928       -0.07484903465889
H            0.74919455750791       -0.80852465332273       -0.35007651398511
H            1.47910462848231       -1.63454473971787       -1.72058516900319
H            3.74569548292211       -1.21369755450170       -0.73258216643143
H            2.99242397894968       -0.27182979101596        0.54951523783917
H            2.90798929756437        0.34931107202348       -2.42986473694290
H            3.89522153414872        1.16282173947668       -1.21597741785797
H            1.96374785943249        2.52235509503098       -1.80168597370733
H            0.85901797669054        1.20368980134980       -1.43087161970700
H            1.45953229794283        1.32594707279282        0.95709695129832
H            2.71536894523647        2.50648364355319        0.60813012987290
H            1.07485282134677        4.17590062476115       -0.03632759200043
H            0.70724397997509        3.54419903771095        1.56810587105422
H           -1.33426501836921        3.83972135467922        0.28098144581250
H           -0.71294809278183        2.85881978081634       -1.04059741911100
H           -1.24274711227900        1.82395930607640        1.78220728728389
H           -0.69065401516780        0.86873530898456        0.40515908885451
H           -3.35894803625496        2.30640483578984        0.64607750140362
H           -2.79867130532978        1.52140648352672       -0.82341618983615
H           -4.37018229313827        0.13023043438993        0.53615666844151
H           -3.20716744880359        0.13375346768921        1.86195310850410
H           -3.08071802823397       -1.96217667791295        0.65811022983312
H           -1.57422426803103       -1.08473398903707        0.44416080633812
H           -3.84391068785565       -1.17109509944367       -1.58602609874261
H           -2.29528625004636       -0.35502171506128       -1.81177274869009
H           -2.29433310315039       -2.55736821887259       -2.93372415192756
H           -2.63314118635974       -3.35892004807724       -1.39884316232747
H           -1.09997780167798       -2.51849941450430       -1.63721310866735
50
 energy: -51.632727235193 gnorm: 0.001170094065 xtb: 6.6.1 (8d0f1dd)
C            0.61894443756013       -1.81340999598006        2.29220726080243
C            1.78208478497915       -2.55186178217233        1.64141080652550
C            1.63146998874939       -2.71199680521201        0.12698785860697
C            1.61212100642799       -1.39950576605012       -0.65927151774493
C            2.88925993916819       -0.58013655614444       -0.49046930503314
C            2.93843134661891        0.66214614356384       -1.38203032160527
C            1.80532379639285        1.66328497938777       -1.14497213985938
C            1.72713373937666        2.15449407672871        0.29909767840532
C            0.72490543218115        3.29299928154840        0.50273012873582
C           -0.70174702284092        2.98095345733374        0.04485547988272
C           -1.28996703520053        1.73124436822577        0.69477660139808
C           -2.73600347263170        1.49432825462356        0.26642459217362
C           -3.30420125426436        0.16610115566407        0.77132900838958
C           -2.63655689500661       -1.08038638388438        0.18625386071060
C           -2.78565951984326       -1.20153139197316       -1.32828992245414
C           -2.16788470587910       -2.49078411086105       -1.85537127716759
H            0.75914510542014       -1.76278186067821        3.36979703515447
H           -0.31866911874159       -2.32823584623596        2.09354682929629
H            0.54180251764407       -0.79551315301306        1.91902990961919
H            2.71429730105434       -2.03091056900303        1.86413670106742
H            1.85430536416374       -3.54917869973258        2.08246310342810
H            2.45691006937885       -3.32830156999380       -0.23842013732266
H            0.70289048047393       -3.25336468221639       -0.07450870505059
H            0.75104283793511       -0.80848090925615       -0.34921245952543
H            1.48167579461677       -1.63480408794557       -1.71928202552050
H            3.74669835690132       -1.21297210130018       -0.73490714419323
H            2.99577471981965       -0.27209600120266        0.54925684494251
H            2.90863168887465        0.34993001274039       -2.42931021555593
H            3.89505541554335        1.16423295180354       -1.21523808076036
H            1.96462293198912        2.52250402474081       -1.80168931756603
H            0.85956749846046        1.20392185289174       -1.43178821939451
H            1.46046773995825        1.32773258017997        0.95721904758765
H            2.71475178407279        2.50918386641006        0.60589673482864
H            1.07357898656056        4.17577851648304       -0.03928237775533
H            0.70720323592060        3.54557703246692        1.56621011562455
H           -1.33449166794837        3.83986713094071        0.28345800804098
H           -0.71611175962362        2.86002034928370       -1.04008658986538
H           -1.24231119046949        1.82418987776738        1.78241459539631
H           -0.69169999471381        0.86944415388658        0.40461527836104
H           -3.35851865597067        2.30688045118719        0.64960106327618
H           -2.79925786271911        1.52627829080785       -0.82253266864434
H           -4.37064651938643        0.13293575755808        0.53424134921375
H           -3.20688143813159        0.13365443123534        1.85966105638061
H           -3.08660470179704       -1.95988156226245        0.65488659474281
H           -1.57720296138647       -1.08740981966580        0.44159876673970
H           -3.84600327671121       -1.17092543710888       -1.58927700277796
H           -2.29654449040340       -0.35663260554808       -1.81536921277716
H           -2.29557263746870       -2.56121703560145       -2.93325228261216
H           -2.63686621509973       -3.35888864109541       -1.39677452848035
H           -1.10311990400444       -2.51989662332195       -1.63478085766445
50
 energy: -51.632821554576 gnorm: 0.005569599275 xtb: 6.6.1 (8d0f1dd)
C            0.62968376557172       -1.82635632543686        2.30730893241384
C            1.79170442731765       -2.56316609072702        1.64717109822681
C            1.64237066040174       -2.71216400041190        0.13056826502196
C            1.62063814715412       -1.39731630709524       -0.65429512548876
C            2.89837746262865       -0.57819820069786       -0.48995262330730
C            2.94284149542668        0.66598258779263       -1.38189649220723
C            1.80607611058377        1.66589776984666       -1.14740837782163
C            1.72798833632497        2.16042130605521        0.29521687804190
C            0.72350557277052        3.29919897802594        0.49646746696321
C           -0.70609159920426        2.98511412510002        0.04623823490683
C           -1.29060454321261        1.73340414700554        0.69618144871281
C           -2.73845783864507        1.50283180172708        0.26894579566691
C           -3.31044456009160        0.17167582491188        0.76396771843649
C           -2.65123017532734       -1.07842385093222        0.17419066461428
C           -2.79778031393629       -1.20096513397154       -1.34042467940057
C           -2.18079204438351       -2.49924542273346       -1.85476870243396
H            0.76848482777244       -1.79845048454382        3.38588149003121
H           -0.30994932462358       -2.33160637484593        2.09579076357854
H            0.56083511617131       -0.80115304947898        1.95295102182670
H            2.72544854051946       -2.04935632097556        1.87785298277440
H            1.85621392257675       -3.56465928466897        2.07763289371432
H            2.46970636821913       -3.32359792459247       -0.23688304371337
H            0.71601857246752       -3.25485134809896       -0.07363883796221
H            0.75958031808979       -0.80733547357336       -0.34362476697444
H            1.49014442115234       -1.63385133212412       -1.71314225724788
H            3.75323640020997       -1.20975002589575       -0.74262680340607
H            3.01245679893548       -0.27323282193999        0.54956638041606
H            2.91456605455166        0.35270931272854       -2.42800851613645
H            3.89635527439739        1.17174657955103       -1.21415838723595
H            1.96632084262287        2.52372595125407       -1.80420516545882
H            0.86160934239471        1.20565765530397       -1.43575091183176
H            1.46568741397284        1.33607039332871        0.95754555806283
H            2.71404779181558        2.52018996111979        0.59759060245194
H            1.06944420539607        4.17809869994781       -0.05166566264647
H            0.70836090380358        3.55619829537797        1.55801877337344
H           -1.33729423915600        3.84176981844831        0.29257177939590
H           -0.72951183531525        2.86725786158632       -1.03842743585049
H           -1.23970694985565        1.82377757814991        1.78305785296282
H           -0.69526284822877        0.87141404627220        0.40261229396573
H           -3.35752439838283        2.31147705367348        0.66318899837834
H           -2.80392654929960        1.54769061738350       -0.81913124476428
H           -4.37625398017842        0.14460941456545        0.52743915124344
H           -3.21053948266843        0.13337613470222        1.85099207089687
H           -3.11242093977503       -1.95228944943505        0.64051091223205
H           -1.59252300150226       -1.09844751037564        0.43167159310343
H           -3.85617039480497       -1.16912508873543       -1.60578660631069
H           -2.30369806702313       -0.36211259027445       -1.83150957959281
H           -2.30183105819743       -2.58023194381498       -2.93216500327842
H           -2.65576209408344       -3.35960083148499       -1.38866140178241
H           -1.11835285535322       -2.52822972699365       -1.62500999656110
50
 energy: -51.632855389697 gnorm: 0.003655402835 xtb: 6.6.1 (8d0f1dd)
C            0.63337118551667       -1.83014582509709        2.30973382000270
C            1.79440868640464       -2.56598086187314        1.64813719137261
C            1.64539267575122       -2.71233486404860        0.13143402821188
C            1.62266268324452       -1.39682046858643       -0.65187748057226
C            2.90033571639039       -0.57712165136998       -0.48930463655614
C            2.94374723594748        0.66686248575734       -1.38126754813445
C            1.80670815593211        1.66627669894010       -1.14775599666726
C            1.72812836598920        2.16229389248921        0.29435678590161
C            0.72331506634833        3.30051283466850        0.49501725544192
C           -0.70640843664637        2.98579691100584        0.04634669950301
C           -1.29096461205643        1.73358247589955        0.69537334326393
C           -2.73924847612427        1.50381636498090        0.26901106451748
C           -3.31282208618229        0.17296304970615        0.76230337373143
C           -2.65531356200314       -1.07759983613878        0.17217442888291
C           -2.80039990346512       -1.20116669255526       -1.34255202904392
C           -2.18478715959222       -2.50024186514452       -1.85448916583885
H            0.77034364378704       -1.80714311840714        3.38871801254866
H           -0.30748471125062       -2.33222075511764        2.09525035675301
H            0.56668497615545       -0.80312189857226        1.96014464195149
H            2.72888804477832       -2.05336554922609        1.87979301005713
H            1.85909024092567       -3.56855469768304        2.07705094490418
H            2.47306602056324       -3.32331805950237       -0.23701252473732
H            0.71937552653024       -3.25581133937854       -0.07395218422226
H            0.76180377361778       -0.80683198185581       -0.33976153197509
H            1.49006307329944       -1.63246382572772       -1.71105098438007
H            3.75548860046067       -1.20865749570147       -0.74275609409286
H            3.01594066620902       -0.27261509697351        0.55046591318719
H            2.91643011417422        0.35323608635044       -2.42767688438121
H            3.89735639192657        1.17341648512387       -1.21406963437962
H            1.96603092111207        2.52374517872658       -1.80597183785806
H            0.86205278208150        1.20557833488707       -1.43566702532911
H            1.46649916644201        1.33793911637493        0.95732051711121
H            2.71450801674295        2.52235725804096        0.59680764920040
H            1.06869173872537        4.17938649555266       -0.05428960224013
H            0.70944906220440        3.55966469652196        1.55643220391065
H           -1.33812038040565        3.84241240733026        0.29348102926676
H           -0.73085826416083        2.86912580836469       -1.03870342604800
H           -1.23928833858066        1.82297692609460        1.78269339730364
H           -0.69569825093295        0.87131806102207        0.40128194469898
H           -3.35757832398972        2.31300248402451        0.66439685853022
H           -2.80563228948367        1.55044099692232       -0.81916827550588
H           -4.37911890026457        0.14748804230054        0.52602248990854
H           -3.21387665222340        0.13324112410619        1.84971136218847
H           -3.11760816506001       -1.95151206411152        0.63813596338194
H           -1.59665668598567       -1.09910418343459        0.43069080777370
H           -3.85876283546840       -1.16817907335136       -1.60939229754289
H           -2.30531620693418       -0.36263121200267       -1.83385845159296
H           -2.30443743143778       -2.58341437419421       -2.93203046683309
H           -2.66143756365111       -3.35963106351484       -1.38792582159559
H           -1.12243929536146       -2.53086736162270       -1.62376119397860
50
 energy: -51.632915885283 gnorm: 0.001886565503 xtb: 6.6.1 (8d0f1dd)
C            0.64688470735706       -1.84343784321200        2.31711117409804
C            1.80515437994992       -2.57572363237769        1.65083019536957
C            1.65649703666821       -2.71309477314386        0.13383491099417
C            1.62930364530821       -1.39458431108883       -0.64274251584622
C            2.90683634719655       -0.57319513197408       -0.48590693208538
C            2.94682413232151        0.66962882767613       -1.37850934121033
C            1.80860941665962        1.66700442250849       -1.14845643534140
C            1.72839898188445        2.16818606276711        0.29187311227072
C            0.72236141541651        3.30442637294284        0.49003410695974
C           -0.70759204709094        2.98738705175008        0.04585118786648
C           -1.29219404821111        1.73342453938896        0.69178885854239
C           -2.74187660738142        1.50699610055537        0.26789845106371
C           -3.32133615076758        0.17777645961375        0.75664822464354
C           -2.66904560962335       -1.07459206042881        0.16657599220122
C           -2.80955127214207       -1.20102950606138       -1.34858495057860
C           -2.19950837673413       -2.50303668318164       -1.85340607261966
H            0.77731871310679       -1.83774768861740        3.39757459545539
H           -0.29755006896023       -2.33505399882522        2.09120720474108
H            0.58812236497447       -0.81022155288480        1.98370133692041
H            2.74131800634124       -2.06587076892250        1.88502479430014
H            1.87099980466222       -3.58170517257944        2.07422524804375
H            2.48536187456529       -3.32166722752464       -0.23836519389575
H            0.73152183875328       -3.25866325713104       -0.07518126831125
H            0.76977934000353       -0.80542854281144       -0.32323192967414
H            1.48878091140280       -1.62596239364049       -1.70282925972675
H            3.76278365602983       -1.20442285391098       -0.74172775795556
H            3.02657044891603       -0.26928505669240        0.55424961017960
H            2.92217669979162        0.35468298284476       -2.42557558683390
H            3.90048790367636        1.17859603697701       -1.21264779879658
H            1.96502046752918        2.52278655588446       -1.81136542179371
H            0.86378578550018        1.20406014310345       -1.43422787855876
H            1.46830625055415        1.34408930406910        0.95658106252678
H            2.71533719171957        2.52963439894461        0.59460108858390
H            1.06530059799642        4.18292424587697       -0.06348792292898
H            0.71244565492541        3.57021070000768        1.55082941168723
H           -1.34063574935198        3.84374017465420        0.29539781935263
H           -0.73419655737193        2.87411740416797       -1.04017435568398
H           -1.23839163531519        1.81968680851253        1.78022412324920
H           -0.69747815553435        0.87066584929231        0.39523225709924
H           -3.35747705835698        2.31825680009639        0.66610411152975
H           -2.81060577438678        1.55743902421872       -0.82053084069462
H           -4.38866126934413        0.15818629665425        0.51969757638707
H           -3.22629783182889        0.13398161037851        1.84515817385157
H           -3.13487095192210       -1.94827648425139        0.63163390018933
H           -1.61064495722231       -1.09978975336339        0.42811118625733
H           -3.86764214443414       -1.16362518676159       -1.61969311884068
H           -2.31025516888474       -0.36407704912091       -1.84005702399665
H           -2.31518923580645       -2.59156238463576       -2.93145848532262
H           -2.68222619653947       -3.35924891701574       -1.38605126030809
H           -1.13748670600011       -2.54000694272824       -1.61979836336037
50
 energy: -51.632945777847 gnorm: 0.003215707372 xtb: 6.6.1 (8d0f1dd)
C            0.65748039049843       -1.85334290942018        2.32117437207162
C            1.81503298100105       -2.58272138221302        1.65183007285568
C            1.66521433390737       -2.71402701876639        0.13461603726570
C            1.63352547844802       -1.39226423731947       -0.63550677474321
C            2.91117078872972       -0.57028304518649       -0.48195942564968
C            2.94921914899020        0.67131620343854       -1.37589055119812
C            1.80951919487060        1.66691414971414       -1.14830372330845
C            1.72821745926705        2.17136457624766        0.29089357415882
C            0.72125153109943        3.30658702484477        0.48668711364165
C           -0.70859790058128        2.98761999375728        0.04404111369970
C           -1.29312789546777        1.73258082805988        0.68820800915771
C           -2.74361600258727        1.50908380121321        0.26522579731413
C           -3.32796406929851        0.18184433476589        0.75296623951773
C           -2.67809037948125       -1.07210698544335        0.16453424718503
C           -2.81628543006785       -1.19983951882756       -1.35090089391201
C           -2.21120416978531       -2.50436491133327       -1.85279095986588
H            0.78278620461775       -1.85986245585736        3.40230962153658
H           -0.28851039239513       -2.33797744244648        2.08610154894831
H            0.60446781129345       -0.81621524297992        1.99901086137784
H            2.75141864930452       -2.07333525804234        1.88693603550147
H            1.88223339969271       -3.59051256428321        2.07133596137244
H            2.49495365342459       -3.31953610822559       -0.24110492703861
H            0.74105515240310       -3.26074566678927       -0.07605710256416
H            0.77555000703231       -0.80493331868135       -0.30805365543470
H            1.48677305314191       -1.61871206382066       -1.69603009862487
H            3.76727116511580       -1.20130644795250       -0.73858457721695
H            3.03249407548260       -0.26553189885173        0.55790663239612