 Entering Gaussian System
 *********************************************
 Gaussian 98:
 frequency output generated by the xtb code
 *********************************************
                         Standard orientation:
 --------------------------------------------------------------------
  Center     Atomic     Atomic              Coordinates (Angstroms)
  Number     Number      Type              X           Y           Z
 --------------------------------------------------------------------
    1          6             0        2.948083    0.283484   -0.500266
    2          6             0        1.816794   -0.443864    0.216007
    3          6             0        0.468526    0.234311   -0.016121
    4          6             0       -0.668737   -0.503919    0.686346
    5          6             0       -2.020482    0.199404    0.558613
    6          6             0       -2.563881    0.203417   -0.865562
    7          1             0        3.898378   -0.215280   -0.323687
    8          1             0        3.027510    1.308797   -0.145030
    9          1             0        2.767399    0.307181   -1.572931
   10          1             0        1.766612   -1.475783   -0.139627
   11          1             0        2.026637   -0.474574    1.287886
   12          1             0        0.275225    0.275104   -1.089391
   13          1             0        0.514170    1.261651    0.353874
   14          1             0       -0.422358   -0.596741    1.747400
   15          1             0       -0.749531   -1.514540    0.278520
   16          1             0       -2.738710   -0.308272    1.207293
   17          1             0       -1.926107    1.228357    0.913612
   18          1             0       -2.622384   -0.811641   -1.252913
   19          1             0       -3.561648    0.636229   -0.887589
   20          1             0       -1.928030    0.787946   -1.525165
 --------------------------------------------------------------------
     1 basis functions        1 primitive gaussians
     1 alpha electrons        1 beta electrons
 
 Harmonic frequencies (cm**-1), IR intensities (km*mol⁻¹),
 Raman scattering activities (A**4/amu), Raman depolarization ratios,
 reduced masses (AMU), force constants (mDyne/A) and normal coordinates:
                      1                      2                      3
                        a                      a                      a 
 Frequencies --    62.2430                86.3004               127.1591
 Red. masses --     5.7804                 7.7740                 6.8470
 Frc consts  --     0.0000                 0.0000                 0.0000
 IR Inten    --     0.0019                 0.0218                 0.0249
 Raman Activ --     0.0000                 0.0000                 0.0000
 Depolar     --     0.0000                 0.0000                 0.0000
 Atom AN      X      Y      Z        X      Y      Z        X      Y      Z
   1   6     0.08   0.03   0.16    -0.15  -0.15  -0.33    -0.11   0.21   0.11
   2   6    -0.05  -0.21  -0.30    -0.05   0.02   0.01    -0.08  -0.18  -0.23
   3   6     0.08   0.20   0.17    -0.00   0.24   0.42    -0.12  -0.27  -0.21
   4   6     0.01   0.16   0.03    -0.01   0.06   0.20    -0.01   0.10   0.34
   5   6     0.02   0.17  -0.06    -0.10  -0.15  -0.05    -0.01   0.05   0.06
   6   6    -0.14  -0.33  -0.00     0.31  -0.01  -0.21     0.32   0.06  -0.06
   7   1    -0.01  -0.09  -0.07    -0.05  -0.09  -0.19    -0.02   0.06  -0.03
   8   1     0.10  -0.07   0.26     0.04  -0.05  -0.10    -0.06   0.02   0.16
   9   1     0.01   0.25   0.05    -0.14  -0.03  -0.08    -0.03   0.19   0.03
  10   1    -0.08   0.01  -0.28    -0.09   0.01  -0.01     0.03  -0.03  -0.15
  11   1    -0.01  -0.28  -0.09     0.08  -0.02  -0.02    -0.05  -0.13  -0.06
  12   1    -0.02   0.20   0.06    -0.03   0.19   0.13    -0.10  -0.21  -0.05
  13   1     0.10   0.01   0.17     0.03   0.03   0.23    -0.00  -0.03  -0.19
  14   1    -0.02   0.03   0.01    -0.06   0.01   0.07     0.02   0.20   0.11
  15   1     0.01   0.05  -0.01     0.06   0.02   0.04    -0.02  -0.03   0.26
  16   1     0.02   0.12   0.05    -0.05  -0.11  -0.10    -0.04  -0.00  -0.03
  17   1     0.03   0.09  -0.13    -0.11  -0.06   0.04    -0.04   0.01   0.03
  18   1    -0.10  -0.14   0.12     0.23   0.02  -0.13     0.27   0.03  -0.08
  19   1    -0.02  -0.05  -0.02     0.05  -0.11  -0.11     0.03  -0.13  -0.06
  20   1    -0.03  -0.21  -0.09     0.08   0.11   0.03     0.05   0.15   0.06
                      4                      5                      6
                        a                      a                      a 
 Frequencies --   164.3141               231.9426               250.6161
 Red. masses --     5.9818                 1.9921                 4.3176
 Frc consts  --     0.0000                 0.0000                 0.0000
 IR Inten    --     0.1095                 0.0047                 0.0798
 Raman Activ --     0.0000                 0.0000                 0.0000
 Depolar     --     0.0000                 0.0000                 0.0000
 Atom AN      X      Y      Z        X      Y      Z        X      Y      Z
   1   6    -0.26   0.26  -0.16    -0.02   0.04   0.03     0.09  -0.09   0.06
   2   6     0.10  -0.08   0.07    -0.03  -0.16  -0.19    -0.16   0.08  -0.17
   3   6    -0.00  -0.26   0.22     0.03   0.04   0.11    -0.11   0.18  -0.14
   4   6    -0.10  -0.22   0.08    -0.01   0.02   0.02     0.07   0.10   0.10
   5   6     0.12   0.19  -0.08     0.02   0.08   0.01    -0.11  -0.26   0.11
   6   6     0.15   0.04  -0.09     0.02  -0.03   0.01     0.19   0.03   0.01
   7   1    -0.01   0.17  -0.10     0.08   0.33   0.44    -0.00  -0.03   0.15
   8   1    -0.15   0.08  -0.05    -0.38   0.15  -0.30    -0.00  -0.01  -0.04
   9   1    -0.14   0.05  -0.03     0.28  -0.39  -0.05     0.14  -0.09  -0.00
  10   1     0.08  -0.02   0.02    -0.02  -0.01  -0.14    -0.08   0.03  -0.07
  11   1     0.08  -0.01   0.01    -0.00  -0.14  -0.06    -0.08  -0.02  -0.04
  12   1     0.01  -0.05   0.06    -0.02   0.12   0.04    -0.06   0.02  -0.04
  13   1    -0.01  -0.08   0.08     0.06  -0.02   0.12    -0.02   0.06  -0.06
  14   1    -0.07  -0.10   0.03    -0.01  -0.02   0.01     0.06   0.10   0.03
  15   1    -0.08  -0.05  -0.01    -0.01   0.02  -0.02     0.08   0.00   0.08
  16   1    -0.03   0.18   0.01     0.00   0.04   0.01    -0.03  -0.18  -0.05
  17   1     0.15   0.07  -0.10     0.02   0.03  -0.02    -0.12  -0.10   0.12
  18   1    -0.24  -0.02   0.12     0.11  -0.01  -0.01    -0.31  -0.00   0.08
  19   1     0.17   0.30  -0.09    -0.04  -0.11   0.01     0.23   0.40  -0.10
  20   1     0.21  -0.26  -0.11    -0.06   0.07   0.01     0.32  -0.29  -0.01
                      7                      8                      9
                        a                      a                      a 
 Frequencies --   315.4088               400.8512               456.6805
 Red. masses --     8.0384                 8.6827                 7.9740
 Frc consts  --     0.0000                 0.0000                 0.0000
 IR Inten    --     0.1336                 0.0493                 0.6772
 Raman Activ --     0.0000                 0.0000                 0.0000
 Depolar     --     0.0000                 0.0000                 0.0000
 Atom AN      X      Y      Z        X      Y      Z        X      Y      Z
   1   6    -0.14  -0.08   0.08    -0.49  -0.00   0.09     0.10   0.06  -0.06
   2   6    -0.30   0.14  -0.01    -0.11  -0.29   0.22     0.23  -0.14   0.05
   3   6    -0.21   0.15  -0.14     0.24   0.14  -0.14     0.17  -0.09  -0.05
   4   6    -0.01  -0.17  -0.23     0.27   0.25  -0.19    -0.27   0.22  -0.24
   5   6     0.21   0.18   0.18     0.13  -0.10  -0.02    -0.44   0.12   0.27
   6   6     0.42  -0.16   0.13    -0.00  -0.01   0.04     0.14  -0.11   0.10
   7   1    -0.08  -0.08   0.04    -0.06   0.13  -0.08     0.06   0.06  -0.06
   8   1     0.01  -0.03   0.03    -0.25   0.00   0.04    -0.01   0.02  -0.01
   9   1    -0.02  -0.01   0.02    -0.25   0.01   0.04    -0.01   0.03  -0.01
  10   1    -0.11   0.03   0.02    -0.05  -0.08   0.06     0.10  -0.04   0.02
  11   1    -0.12   0.06   0.01    -0.05  -0.08   0.07     0.08  -0.02   0.01
  12   1    -0.04   0.08  -0.04     0.13   0.03  -0.05     0.12  -0.02  -0.03
  13   1    -0.10   0.03   0.01     0.14   0.04  -0.06     0.09  -0.02  -0.03
  14   1     0.07  -0.22  -0.10     0.10   0.09  -0.06    -0.04  -0.10  -0.09
  15   1    -0.07   0.02  -0.22     0.12   0.06  -0.04    -0.17   0.12  -0.19
  16   1     0.03   0.15   0.10     0.10  -0.13  -0.02    -0.08  -0.10   0.02
  17   1     0.16   0.06  -0.02    -0.05  -0.04   0.05    -0.24   0.02   0.14
  18   1     0.23  -0.08   0.10    -0.04   0.00   0.00     0.13  -0.06   0.10
  19   1     0.09  -0.13  -0.06     0.01   0.03   0.05     0.04  -0.04  -0.20
  20   1     0.12  -0.04   0.04    -0.00  -0.01   0.00     0.16  -0.08   0.10
                     10                     11                     12
                        a                      a                      a 
 Frequencies --   770.5934               798.8690               833.7183
 Red. masses --     1.9420                 2.6333                 2.8013
 Frc consts  --     0.0000                 0.0000                 0.0000
 IR Inten    --    10.4222                 4.5317                 2.5700
 Raman Activ --     0.0000                 0.0000                 0.0000
 Depolar     --     0.0000                 0.0000                 0.0000
 Atom AN      X      Y      Z        X      Y      Z        X      Y      Z
   1   6    -0.01   0.01   0.01    -0.02  -0.02  -0.03     0.01   0.05   0.06
   2   6    -0.00   0.09   0.09    -0.07  -0.04  -0.15     0.01   0.12   0.14
   3   6     0.01   0.07   0.17    -0.05  -0.12   0.05    -0.06  -0.14  -0.05
   4   6     0.05   0.05   0.12     0.05   0.08   0.10    -0.08  -0.05  -0.20
   5   6     0.08   0.05  -0.03     0.19   0.17  -0.06     0.11   0.12  -0.07
   6   6    -0.01   0.00  -0.06     0.05   0.04  -0.05     0.07   0.06   0.09
   7   1    -0.02  -0.03  -0.02    -0.02   0.00   0.08    -0.03  -0.08  -0.07
   8   1     0.07   0.03  -0.11    -0.08  -0.05   0.14     0.18   0.07  -0.20
   9   1    -0.08  -0.11   0.01     0.15   0.13  -0.03    -0.16  -0.18   0.04
  10   1    -0.12   0.14  -0.30     0.04  -0.11   0.25     0.06   0.12  -0.25
  11   1     0.05  -0.33  -0.00     0.00   0.30  -0.03    -0.08  -0.26   0.04
  12   1    -0.02  -0.45   0.03    -0.16   0.04   0.04     0.12   0.16  -0.03
  13   1    -0.09   0.17  -0.39     0.08  -0.05   0.06    -0.13  -0.10   0.19
  14   1    -0.07  -0.31   0.02    -0.02  -0.17   0.02     0.01   0.29  -0.03
  15   1    -0.00   0.13  -0.27    -0.10   0.09  -0.13    -0.07  -0.13   0.25
  16   1     0.01  -0.10  -0.10     0.05  -0.30  -0.28     0.04  -0.19  -0.18
  17   1    -0.09  -0.01   0.08    -0.23  -0.04   0.29    -0.07  -0.05   0.24
  18   1    -0.03  -0.02   0.04    -0.02  -0.08   0.22     0.05  -0.07   0.25
  19   1    -0.02  -0.02   0.06    -0.03  -0.08   0.11    -0.02  -0.08   0.03
  20   1    -0.07  -0.02  -0.10    -0.17  -0.09  -0.28    -0.08  -0.09  -0.16
                     13                     14                     15
                        a                      a                      a 
 Frequencies --   927.1342               930.7971               941.7667
 Red. masses --     7.2958                 3.4371                 5.5974
 Frc consts  --     0.0000                 0.0000                 0.0000
 IR Inten    --     0.6105                 0.6797                 7.9725
 Raman Activ --     0.0000                 0.0000                 0.0000
 Depolar     --     0.0000                 0.0000                 0.0000
 Atom AN      X      Y      Z        X      Y      Z        X      Y      Z
   1   6     0.06  -0.04   0.08     0.12  -0.11  -0.12     0.33  -0.02   0.02
   2   6     0.06  -0.03   0.01     0.06  -0.09   0.06     0.09  -0.21   0.12
   3   6     0.05   0.15  -0.21    -0.06   0.25   0.09    -0.26   0.18  -0.17
   4   6     0.27  -0.30   0.25    -0.11  -0.17  -0.15    -0.20   0.07   0.10
   5   6    -0.18   0.14   0.24    -0.03  -0.00  -0.07     0.09  -0.08  -0.07
   6   6    -0.21   0.14  -0.30     0.01   0.11   0.10     0.18  -0.08   0.06
   7   1     0.10   0.09  -0.13     0.15   0.20  -0.03     0.28   0.27  -0.29
   8   1    -0.04   0.02  -0.05    -0.27  -0.08   0.21    -0.11   0.04  -0.07
   9   1    -0.18  -0.07   0.05     0.12   0.20  -0.04    -0.25  -0.04   0.06
  10   1     0.03  -0.01  -0.01    -0.29  -0.03   0.08     0.02  -0.06   0.04
  11   1    -0.14  -0.01   0.03     0.21  -0.02  -0.02    -0.18  -0.05   0.07
  12   1    -0.08   0.12  -0.03     0.12  -0.15  -0.01    -0.17   0.12  -0.02
  13   1     0.03   0.01   0.03    -0.21   0.14  -0.16    -0.02   0.02   0.02
  14   1     0.20  -0.16   0.03    -0.11   0.20   0.00    -0.03  -0.07   0.01
  15   1     0.09  -0.05  -0.01     0.14  -0.13   0.15    -0.10   0.06  -0.06
  16   1    -0.14   0.06  -0.01    -0.07   0.02  -0.07    -0.05   0.02  -0.06
  17   1     0.04  -0.00   0.15     0.16  -0.07   0.13    -0.03   0.01  -0.08
  18   1     0.08  -0.06   0.13     0.10  -0.06   0.24    -0.11   0.03  -0.08
  19   1    -0.10  -0.07  -0.32    -0.04  -0.08  -0.09     0.06   0.04   0.31
  20   1    -0.02  -0.08  -0.15    -0.01  -0.08  -0.08    -0.10   0.05  -0.06
                     16                     17                     18
                        a                      a                      a 
 Frequencies --  1016.4638              1031.3766              1081.3614
 Red. masses --     3.6384                 5.1282                 7.9934
 Frc consts  --     0.0000                 0.0000                 0.0000
 IR Inten    --     0.7751                 0.6442                 1.2519
 Raman Activ --     0.0000                 0.0000                 0.0000
 Depolar     --     0.0000                 0.0000                 0.0000
 Atom AN      X      Y      Z        X      Y      Z        X      Y      Z
   1   6    -0.07   0.08   0.08    -0.20  -0.06   0.01     0.15   0.31  -0.25
   2   6     0.00  -0.06  -0.11     0.11   0.10  -0.01    -0.24  -0.34   0.29
   3   6     0.13   0.11  -0.02     0.27   0.14  -0.20    -0.20  -0.01   0.04
   4   6    -0.17  -0.02   0.01    -0.15  -0.17   0.15    -0.01   0.13  -0.06
   5   6    -0.12  -0.16  -0.19    -0.17  -0.02   0.10     0.03  -0.11   0.25
   6   6     0.10   0.12   0.22     0.23  -0.04  -0.06     0.02   0.04  -0.23
   7   1    -0.08  -0.11   0.01    -0.11  -0.09   0.12    -0.08  -0.10   0.09
   8   1     0.15   0.05  -0.11    -0.02  -0.04   0.07     0.25   0.07  -0.08
   9   1    -0.07  -0.11   0.03     0.08   0.03  -0.02     0.25   0.06  -0.10
  10   1     0.24  -0.05   0.03    -0.04   0.05  -0.06     0.01  -0.09   0.06
  11   1    -0.15   0.10   0.01     0.16  -0.03  -0.03     0.02  -0.10   0.06
  12   1    -0.16  -0.03   0.03     0.26   0.09  -0.08     0.09  -0.00  -0.01
  13   1     0.35   0.06  -0.12     0.01   0.02  -0.01     0.08  -0.00  -0.01
  14   1    -0.30  -0.00   0.06     0.15  -0.05  -0.00     0.17   0.04  -0.05
  15   1     0.31  -0.00  -0.07    -0.15  -0.04   0.06     0.11   0.04  -0.04
  16   1    -0.19   0.13  -0.09    -0.30   0.15  -0.13    -0.07   0.09   0.06
  17   1     0.27  -0.09   0.02    -0.03   0.02  -0.05     0.18  -0.04   0.07
  18   1     0.09  -0.05   0.26    -0.15   0.01  -0.04    -0.05  -0.01   0.01
  19   1    -0.02  -0.07   0.02     0.04  -0.01   0.40    -0.02  -0.04   0.05
  20   1    -0.03  -0.06  -0.07    -0.21   0.04  -0.22    -0.11  -0.02  -0.19
                     19                     20                     21
                        a                      a                      a 
 Frequencies --  1110.5195              1134.2871              1150.2918
 Red. masses --     7.9905                 7.6170                 7.7523
 Frc consts  --     0.0000                 0.0000                 0.0000
 IR Inten    --     0.4264                 0.2561                 3.0535
 Raman Activ --     0.0000                 0.0000                 0.0000
 Depolar     --     0.0000                 0.0000                 0.0000
 Atom AN      X      Y      Z        X      Y      Z        X      Y      Z
   1   6    -0.23  -0.16   0.17     0.02  -0.04   0.05     0.12  -0.11   0.07
   2   6     0.47  -0.00  -0.10    -0.08   0.13  -0.11    -0.19   0.24  -0.16
   3   6    -0.38   0.07   0.05     0.27   0.03  -0.01     0.09  -0.34   0.27
   4   6    -0.05   0.19  -0.13    -0.41   0.06   0.03     0.18   0.15  -0.26
   5   6     0.08  -0.10   0.20     0.33  -0.14   0.29    -0.24  -0.03   0.19
   6   6     0.01   0.02  -0.18    -0.10  -0.03  -0.29     0.16   0.02  -0.12
   7   1    -0.07  -0.07   0.06     0.04   0.05  -0.05     0.13   0.13  -0.12
   8   1    -0.05  -0.05   0.05    -0.05   0.00  -0.00    -0.14  -0.01   0.01
   9   1    -0.07  -0.07   0.05    -0.08  -0.01   0.02    -0.15  -0.00   0.05
  10   1     0.32  -0.00  -0.05    -0.09   0.03   0.00    -0.13   0.05  -0.00
  11   1     0.29   0.01  -0.06    -0.12   0.06  -0.01    -0.15   0.07  -0.02
  12   1    -0.18   0.00   0.03     0.09  -0.01  -0.01    -0.05  -0.13   0.08
  13   1    -0.13   0.03  -0.01     0.18   0.03  -0.06     0.01  -0.08   0.04
  14   1     0.08   0.08  -0.05    -0.22   0.04   0.04     0.07   0.10  -0.06
  15   1     0.10   0.04  -0.04    -0.23  -0.00   0.08     0.22   0.01  -0.02
  16   1     0.03   0.03   0.10     0.17  -0.07   0.14    -0.12   0.12   0.08
  17   1     0.16  -0.04   0.07     0.25  -0.10   0.22     0.07   0.01  -0.03
  18   1    -0.03  -0.01  -0.01    -0.02   0.00  -0.11    -0.09  -0.01   0.02
  19   1    -0.01  -0.01   0.00    -0.02  -0.00  -0.09     0.02  -0.03   0.19
  20   1    -0.06  -0.01  -0.12    -0.01  -0.01  -0.06    -0.14   0.02  -0.19
                     22                     23                     24
                        a                      a                      a 
 Frequencies --  1184.4045              1227.1148              1256.3590
 Red. masses --     6.7912                 4.6100                 3.3254
 Frc consts  --     0.0000                 0.0000                 0.0000
 IR Inten    --     0.4769                 0.8266                 0.2782
 Raman Activ --     0.0000                 0.0000                 0.0000
 Depolar     --     0.0000                 0.0000                 0.0000
 Atom AN      X      Y      Z        X      Y      Z        X      Y      Z
   1   6    -0.00   0.12   0.08     0.05   0.16   0.25    -0.06   0.03  -0.10
   2   6    -0.00  -0.21  -0.13    -0.06  -0.19  -0.31     0.12  -0.06   0.09
   3   6     0.05   0.24   0.15     0.03   0.08   0.16     0.15   0.11  -0.04
   4   6     0.04  -0.32  -0.22    -0.01   0.05   0.01     0.08  -0.08  -0.08
   5   6    -0.05   0.36   0.16     0.02  -0.19  -0.07    -0.10  -0.16   0.10
   6   6     0.05  -0.22  -0.09    -0.01   0.15   0.04     0.14   0.22  -0.06
   7   1    -0.04  -0.07  -0.01    -0.01  -0.06  -0.11    -0.06  -0.04   0.08
   8   1     0.13   0.06  -0.10     0.16   0.11  -0.20     0.02  -0.02   0.05
   9   1    -0.05  -0.09   0.02    -0.20  -0.19   0.09     0.09   0.03  -0.04
  10   1     0.07  -0.10   0.11    -0.16  -0.13   0.20    -0.00  -0.00  -0.01
  11   1    -0.05   0.11  -0.02     0.18   0.21  -0.11    -0.22  -0.05   0.07
  12   1    -0.11  -0.15   0.05     0.21  -0.10  -0.00    -0.29  -0.02   0.05
  13   1     0.01   0.12  -0.15    -0.19   0.06  -0.05    -0.15   0.03   0.00
  14   1    -0.12   0.17   0.00     0.26  -0.01  -0.06    -0.24   0.01   0.04
  15   1     0.13  -0.17   0.16    -0.29   0.01   0.05    -0.20  -0.05   0.09
  16   1     0.06  -0.09  -0.02    -0.00   0.03   0.03     0.28  -0.04   0.35
  17   1    -0.17   0.06   0.15    -0.03   0.01  -0.17    -0.24   0.10  -0.32
  18   1    -0.13   0.05  -0.25     0.07  -0.02   0.15     0.01  -0.03   0.20
  19   1     0.06   0.08   0.15    -0.04  -0.06  -0.05    -0.03  -0.08   0.02
  20   1    -0.03   0.09   0.06     0.01  -0.06  -0.06    -0.10  -0.05  -0.24
                     25                     26                     27
                        a                      a                      a 
 Frequencies --  1279.8001              1287.0404              1291.5887
 Red. masses --     3.0074                 1.8136                 2.6816
 Frc consts  --     0.0000                 0.0000                 0.0000
 IR Inten    --     0.0127                 0.2152                 0.6378
 Raman Activ --     0.0000                 0.0000                 0.0000
 Depolar     --     0.0000                 0.0000                 0.0000
 Atom AN      X      Y      Z        X      Y      Z        X      Y      Z
   1   6     0.02  -0.15  -0.10    -0.02   0.00  -0.05    -0.05   0.04  -0.09
   2   6    -0.13   0.06  -0.02     0.04  -0.11  -0.13     0.17  -0.04   0.03
   3   6    -0.09   0.14   0.26     0.07   0.01   0.02     0.18   0.04   0.11
   4   6    -0.10  -0.10  -0.04     0.04   0.13   0.11     0.09   0.11  -0.13
   5   6     0.07  -0.04  -0.03     0.01   0.01   0.04     0.02  -0.07  -0.04
   6   6    -0.03   0.07   0.02    -0.02  -0.03  -0.03    -0.07  -0.08   0.07
   7   1     0.06   0.08  -0.01    -0.03  -0.03   0.01    -0.06  -0.05   0.08
   8   1    -0.12  -0.06   0.08    -0.01  -0.01   0.02     0.01  -0.02   0.05
   9   1     0.05   0.10  -0.03     0.04   0.01  -0.02     0.06   0.01  -0.03
  10   1     0.56   0.02  -0.11     0.24  -0.06   0.02    -0.08  -0.01   0.01
  11   1    -0.28   0.01   0.04    -0.38   0.07   0.05    -0.32  -0.03   0.08
  12   1     0.24  -0.14   0.01     0.41   0.00  -0.07    -0.41  -0.09   0.11
  13   1     0.21   0.10  -0.15    -0.62  -0.00   0.09    -0.18   0.04  -0.01
  14   1     0.36   0.05  -0.09    -0.26  -0.08   0.08     0.21   0.05  -0.07
  15   1    -0.14  -0.05   0.09     0.17   0.07  -0.11    -0.40   0.01   0.09
  16   1     0.02  -0.02  -0.01    -0.05   0.04  -0.02    -0.31   0.12  -0.25
  17   1    -0.13   0.04  -0.13     0.07  -0.02   0.08     0.23  -0.09   0.14
  18   1     0.04  -0.01   0.06    -0.01   0.00  -0.03     0.01   0.01  -0.07
  19   1    -0.02  -0.03  -0.02    -0.00   0.00   0.04     0.01   0.03  -0.06
  20   1     0.02  -0.03  -0.01     0.01   0.00   0.02     0.04   0.01   0.09
                     28                     29                     30
                        a                      a                      a 
 Frequencies --  1349.3198              1354.5128              1378.7433
 Red. masses --     4.1631                 4.7526                 5.4745
 Frc consts  --     0.0000                 0.0000                 0.0000
 IR Inten    --     0.1159                 3.2627                 1.5130
 Raman Activ --     0.0000                 0.0000                 0.0000
 Depolar     --     0.0000                 0.0000                 0.0000
 Atom AN      X      Y      Z        X      Y      Z        X      Y      Z
   1   6     0.05  -0.08   0.05     0.01  -0.03   0.01    -0.05   0.02  -0.01
   2   6    -0.35  -0.01   0.07    -0.13  -0.02   0.03     0.28   0.03  -0.07
   3   6     0.04   0.05  -0.06     0.01   0.06  -0.01    -0.42  -0.01   0.08
   4   6     0.30   0.03  -0.11     0.17   0.01   0.08     0.36  -0.01  -0.06
   5   6     0.07  -0.09   0.15    -0.40   0.10  -0.30    -0.06  -0.02   0.04
   6   6    -0.02  -0.00   0.04     0.11  -0.06  -0.06     0.01   0.00  -0.00
   7   1     0.09   0.09  -0.08     0.03   0.04  -0.03    -0.03  -0.02   0.02
   8   1     0.00   0.01  -0.06     0.00   0.00  -0.02     0.02  -0.01   0.03
   9   1     0.01   0.06   0.01     0.01   0.03  -0.00     0.01  -0.03  -0.01
  10   1     0.36   0.01  -0.08     0.17   0.00  -0.03    -0.22  -0.01   0.06
  11   1     0.38   0.02  -0.08     0.11   0.01  -0.02    -0.23  -0.02   0.04
  12   1    -0.06  -0.02  -0.00     0.01  -0.01  -0.00     0.37   0.01  -0.07
  13   1    -0.06  -0.01   0.04    -0.03   0.01   0.01     0.36   0.01  -0.07
  14   1    -0.41   0.03   0.09     0.05  -0.07   0.01    -0.31   0.02   0.08
  15   1    -0.30   0.01   0.06    -0.27   0.02   0.04    -0.30   0.01   0.04
  16   1    -0.25   0.12  -0.15     0.32  -0.10   0.28    -0.08   0.03  -0.03
  17   1    -0.04   0.02  -0.05     0.41  -0.15   0.30     0.05  -0.01   0.01
  18   1    -0.02   0.02  -0.06    -0.05  -0.03   0.06    -0.03   0.01  -0.02
  19   1    -0.01  -0.01  -0.09     0.03   0.01   0.19    -0.01  -0.03   0.02
  20   1    -0.03  -0.02  -0.04     0.00   0.07   0.05    -0.00  -0.01  -0.01
                     31                     32                     33
                        a                      a                      a 
 Frequencies --  1415.8256              1416.7147              1491.5248
 Red. masses --     3.2119                 3.1896                 1.8832
 Frc consts  --     0.0000                 0.0000                 0.0000
 IR Inten    --     2.0812                 0.7853                 0.5522
 Raman Activ --     0.0000                 0.0000                 0.0000
 Depolar     --     0.0000                 0.0000                 0.0000
 Atom AN      X      Y      Z        X      Y      Z        X      Y      Z
   1   6    -0.13  -0.07   0.08    -0.31  -0.17   0.18     0.00  -0.02   0.01
   2   6     0.03  -0.00   0.00     0.08  -0.00  -0.02    -0.00   0.07  -0.04
   3   6     0.00   0.00  -0.01     0.00  -0.02   0.02     0.02   0.02  -0.02
   4   6     0.01   0.01  -0.04    -0.04   0.00   0.02     0.01  -0.18   0.10
   5   6     0.07  -0.03   0.06    -0.02   0.02  -0.02     0.08  -0.07  -0.12
   6   6    -0.16   0.01  -0.37     0.06  -0.00   0.15     0.04   0.03  -0.02
   7   1     0.09   0.14  -0.11     0.20   0.33  -0.26    -0.01  -0.01   0.01
   8   1     0.16   0.02  -0.12     0.38   0.06  -0.28    -0.01   0.02  -0.06
   9   1     0.18   0.09  -0.02     0.42   0.21  -0.06    -0.00   0.07   0.00
  10   1    -0.04   0.01  -0.02    -0.08   0.01  -0.02     0.03  -0.06   0.17
  11   1    -0.01   0.02   0.00    -0.08   0.04   0.02    -0.01  -0.18  -0.01
  12   1    -0.05  -0.03   0.01     0.01   0.00   0.00    -0.03  -0.09   0.00
  13   1     0.01  -0.01   0.03    -0.02  -0.00  -0.00     0.01  -0.03   0.09
  14   1    -0.04  -0.01  -0.00     0.05   0.00  -0.01     0.03   0.50   0.04
  15   1     0.01  -0.02   0.03     0.03   0.01  -0.02    -0.10   0.19  -0.46
  16   1    -0.08   0.07  -0.03     0.04  -0.03   0.01    -0.03   0.31   0.20
  17   1    -0.10   0.02  -0.02     0.04  -0.00   0.00    -0.25  -0.08   0.27
  18   1     0.19  -0.18   0.40    -0.08   0.07  -0.17    -0.12   0.00   0.01
  19   1     0.01   0.08   0.45    -0.00  -0.03  -0.19    -0.05  -0.12  -0.01
  20   1     0.29   0.09   0.34    -0.12  -0.04  -0.14     0.04   0.01   0.04
                     34                     35                     36
                        a                      a                      a 
 Frequencies --  1493.7713              1497.6573              1500.2936
 Red. masses --     1.8366                 1.9722                 1.8138
 Frc consts  --     0.0000                 0.0000                 0.0000
 IR Inten    --     0.3138                 0.0569                 0.3580
 Raman Activ --     0.0000                 0.0000                 0.0000
 Depolar     --     0.0000                 0.0000                 0.0000
 Atom AN      X      Y      Z        X      Y      Z        X      Y      Z
   1   6     0.01  -0.01   0.01     0.01   0.00   0.00     0.01  -0.04   0.03
   2   6     0.02   0.02  -0.02     0.03  -0.04   0.03    -0.02   0.20  -0.14
   3   6    -0.01   0.18  -0.12    -0.05   0.13  -0.08     0.00   0.03  -0.02
   4   6    -0.03  -0.02   0.03    -0.02   0.13  -0.08    -0.01   0.07  -0.04
   5   6    -0.04   0.06   0.12     0.08  -0.06  -0.15    -0.02   0.00  -0.00
   6   6     0.07   0.01  -0.04     0.01   0.00   0.04    -0.05  -0.02   0.03
   7   1    -0.02  -0.03   0.02    -0.01  -0.02  -0.00    -0.03  -0.05   0.02
   8   1    -0.03   0.02  -0.06    -0.02   0.00  -0.00    -0.05   0.06  -0.17
   9   1    -0.01   0.07   0.00    -0.00   0.00   0.00    -0.00   0.19   0.01
  10   1    -0.00  -0.02   0.05    -0.05   0.05  -0.13     0.11  -0.19   0.55
  11   1    -0.02  -0.05  -0.00    -0.02   0.15   0.01     0.00  -0.59  -0.02
  12   1     0.01  -0.50  -0.03     0.03  -0.37  -0.02    -0.00  -0.04  -0.01
  13   1     0.07  -0.17   0.47     0.10  -0.12   0.34    -0.00  -0.01   0.04
  14   1     0.01   0.07   0.01     0.01  -0.33  -0.04    -0.01  -0.20  -0.02
  15   1     0.00   0.03  -0.08     0.08  -0.12   0.30     0.03  -0.07   0.18
  16   1     0.03  -0.29  -0.19    -0.04   0.36   0.22     0.01  -0.00   0.01
  17   1     0.22   0.07  -0.25    -0.28  -0.09   0.32     0.01  -0.00  -0.00
  18   1    -0.26  -0.03   0.11     0.01   0.03  -0.07     0.19   0.01  -0.06
  19   1    -0.06  -0.15  -0.09    -0.00  -0.02  -0.02     0.06   0.14   0.04
  20   1     0.01   0.14   0.13    -0.01  -0.05  -0.05    -0.04  -0.07  -0.09
                     37                     38                     39
                        a                      a                      a 
 Frequencies --  1505.3507              1506.9860              1508.5640
 Red. masses --     1.5340                 1.6946                 1.6294
 Frc consts  --     0.0000                 0.0000                 0.0000
 IR Inten    --     2.2379                 0.7679                 1.6210
 Raman Activ --     0.0000                 0.0000                 0.0000
 Depolar     --     0.0000                 0.0000                 0.0000
 Atom AN      X      Y      Z        X      Y      Z        X      Y      Z
   1   6    -0.03  -0.12  -0.17     0.07  -0.09   0.02     0.11  -0.11   0.07
   2   6    -0.01  -0.02  -0.04     0.05  -0.09   0.05     0.05  -0.06   0.03
   3   6    -0.00  -0.00   0.00    -0.02   0.05  -0.03    -0.01  -0.06   0.04
   4   6    -0.00   0.01  -0.00     0.02  -0.07   0.04    -0.00   0.04  -0.03
   5   6     0.01  -0.00  -0.01    -0.06   0.01   0.03     0.04  -0.00  -0.02
   6   6     0.02   0.00  -0.01    -0.14  -0.03   0.05     0.09   0.03  -0.04
   7   1     0.11   0.41   0.57    -0.07  -0.09   0.16    -0.12  -0.20   0.13
   8   1     0.46  -0.07   0.06    -0.10   0.10  -0.28    -0.22   0.17  -0.45
   9   1    -0.43   0.15   0.07    -0.12   0.34   0.03    -0.10   0.49   0.03
  10   1    -0.01  -0.02   0.04    -0.06   0.06  -0.19    -0.04   0.02  -0.07
  11   1     0.02  -0.01  -0.01    -0.02   0.21   0.01    -0.02   0.08   0.01
  12   1     0.02   0.01  -0.00     0.01  -0.14  -0.01    -0.00   0.20   0.01
  13   1    -0.02   0.00  -0.00     0.03  -0.05   0.12    -0.03   0.07  -0.18
  14   1    -0.00  -0.03  -0.00     0.00   0.18   0.02    -0.01  -0.11  -0.01
  15   1     0.01  -0.01   0.03    -0.04   0.07  -0.17     0.02  -0.04   0.11
  16   1    -0.00   0.02   0.01     0.03  -0.08  -0.02    -0.02   0.05   0.00
  17   1    -0.01  -0.00   0.01     0.07   0.01  -0.06    -0.04  -0.01   0.03
  18   1    -0.05  -0.00   0.02     0.47   0.03  -0.15    -0.33  -0.02   0.10
  19   1    -0.01  -0.03  -0.02     0.12   0.31   0.14    -0.09  -0.23  -0.09
  20   1    -0.00   0.03   0.02    -0.04  -0.20  -0.21     0.04   0.13   0.14
                     40                     41                     42
                        a                      a                      a 
 Frequencies --  1510.9768              2955.4577              2959.5479
 Red. masses --     1.5625                 1.8953                 1.9447
 Frc consts  --     0.0000                 0.0000                 0.0000
 IR Inten    --     2.0785                12.0942                 2.6573
 Raman Activ --     0.0000                 0.0000                 0.0000
 Depolar     --     0.0000                 0.0000                 0.0000
 Atom AN      X      Y      Z        X      Y      Z        X      Y      Z
   1   6    -0.00   0.00  -0.00     0.00   0.00   0.00     0.00   0.01   0.01
   2   6    -0.01   0.01   0.00    -0.01  -0.04  -0.05    -0.03  -0.12  -0.17
   3   6     0.01   0.00  -0.01     0.02   0.11   0.10     0.01   0.09   0.06
   4   6    -0.00   0.00  -0.01    -0.05  -0.10  -0.20     0.02   0.07   0.11
   5   6    -0.04   0.06   0.02    -0.01   0.02   0.01    -0.05  -0.11   0.01
   6   6    -0.05   0.21   0.02    -0.00   0.00   0.00     0.01   0.01  -0.00
   7   1     0.00   0.01   0.01    -0.00   0.00   0.00    -0.00   0.00   0.00
   8   1     0.01  -0.00   0.01    -0.00  -0.01  -0.00    -0.00  -0.04  -0.01
   9   1    -0.00  -0.01   0.00    -0.00   0.00  -0.02    -0.01   0.00  -0.05
  10   1     0.01  -0.01   0.02     0.01   0.17   0.06     0.02   0.46   0.15
  11   1     0.01  -0.02  -0.00     0.03  -0.01   0.14     0.09  -0.02   0.46
  12   1    -0.05  -0.00   0.01    -0.05   0.03  -0.25    -0.02   0.02  -0.11
  13   1    -0.01  -0.00   0.01    -0.02  -0.42  -0.15    -0.01  -0.33  -0.12
  14   1    -0.00  -0.02  -0.00     0.13  -0.06   0.57    -0.07   0.03  -0.28
  15   1     0.02  -0.01   0.02     0.03   0.45   0.17    -0.02  -0.28  -0.11
  16   1     0.01  -0.06  -0.04     0.04   0.03  -0.03     0.14   0.09  -0.13
  17   1     0.06   0.01  -0.02    -0.01  -0.12  -0.04     0.02   0.29   0.10
  18   1    -0.02   0.14  -0.32     0.00  -0.01  -0.00    -0.00  -0.02  -0.01
  19   1    -0.22  -0.46   0.30     0.00  -0.00  -0.00    -0.00   0.00  -0.00
  20   1     0.44  -0.51  -0.04    -0.00  -0.00   0.00    -0.02  -0.02   0.02
                     43                     44                     45
                        a                      a                      a 
 Frequencies --  2961.6157              2970.8854              2975.3181
 Red. masses --     1.8888                 1.7430                 1.5432
 Frc consts  --     0.0000                 0.0000                 0.0000
 IR Inten    --    20.4137                37.8561                13.0336
 Raman Activ --     0.0000                 0.0000                 0.0000
 Depolar     --     0.0000                 0.0000                 0.0000
 Atom AN      X      Y      Z        X      Y      Z        X      Y      Z
   1   6     0.00   0.00   0.01     0.00   0.02   0.01    -0.01   0.00  -0.01
   2   6    -0.02  -0.05  -0.09    -0.02  -0.09  -0.12     0.02  -0.09   0.10
   3   6     0.00   0.01   0.02    -0.01  -0.16  -0.07     0.01   0.05   0.02
   4   6     0.02  -0.03   0.07    -0.02   0.06  -0.08    -0.01   0.13  -0.03
   5   6     0.13   0.20  -0.07    -0.01   0.05   0.04     0.06   0.04  -0.06
   6   6    -0.01  -0.02   0.00     0.00  -0.00   0.00    -0.01  -0.01   0.00
   7   1    -0.00   0.00   0.00     0.01  -0.00   0.00     0.03  -0.01   0.00
   8   1    -0.00  -0.02  -0.01    -0.00  -0.07  -0.02    -0.00  -0.01  -0.01
   9   1    -0.00   0.00  -0.03    -0.01   0.00  -0.04     0.01   0.00   0.05
  10   1     0.01   0.18   0.06     0.02   0.31   0.10     0.02   0.35   0.15
  11   1     0.05  -0.01   0.26     0.07  -0.02   0.34    -0.10  -0.01  -0.51
  12   1    -0.01   0.00  -0.04    -0.00  -0.02  -0.01    -0.00   0.01  -0.01
  13   1    -0.00  -0.04  -0.01     0.03   0.59   0.23    -0.01  -0.19  -0.07
  14   1    -0.07   0.02  -0.31     0.09  -0.02   0.41     0.07  -0.00   0.31
  15   1     0.01   0.13   0.07    -0.02  -0.20  -0.10    -0.04  -0.46  -0.21
  16   1    -0.46  -0.32   0.41     0.08   0.06  -0.06    -0.23  -0.17   0.21
  17   1    -0.02  -0.41  -0.16    -0.03  -0.23  -0.07     0.01   0.05   0.01
  18   1     0.00   0.05   0.02     0.00   0.01   0.00    -0.00   0.02   0.01
  19   1     0.01  -0.01   0.00    -0.01   0.01  -0.00     0.01  -0.01   0.00
  20   1     0.04   0.03  -0.04     0.00  -0.00   0.00     0.02   0.02  -0.02
                     46                     47                     48
                        a                      a                      a 
 Frequencies --  2979.4291              2981.9132              2990.6736
 Red. masses --     1.4857                 1.7125                 1.6162
 Frc consts  --     0.0000                 0.0000                 0.0000
 IR Inten    --    36.0187               123.7039                80.5165
 Raman Activ --     0.0000                 0.0000                 0.0000
 Depolar     --     0.0000                 0.0000                 0.0000
 Atom AN      X      Y      Z        X      Y      Z        X      Y      Z
   1   6     0.01  -0.01   0.00     0.01  -0.02  -0.01    -0.02   0.02  -0.02
   2   6    -0.01   0.08  -0.05    -0.00   0.12   0.00     0.01  -0.04   0.06
   3   6     0.01  -0.03   0.05     0.02   0.07   0.11     0.04  -0.07   0.19
   4   6    -0.01   0.02  -0.06     0.01   0.13   0.04     0.01  -0.03   0.05
   5   6     0.07  -0.08  -0.12    -0.01   0.10   0.06    -0.01  -0.01   0.01
   6   6    -0.01   0.02   0.00     0.01  -0.02  -0.01     0.02   0.01  -0.01
   7   1    -0.03   0.01  -0.01    -0.03   0.01  -0.01     0.05  -0.03   0.01
   8   1     0.00   0.02   0.01     0.01   0.07   0.02    -0.00  -0.03  -0.02
   9   1    -0.00  -0.00  -0.01     0.00  -0.00   0.01     0.02   0.00   0.09
  10   1    -0.02  -0.32  -0.13    -0.02  -0.45  -0.17     0.01   0.13   0.06
  11   1     0.06   0.01   0.31     0.04   0.02   0.18    -0.05  -0.00  -0.27
  12   1    -0.05   0.00  -0.25    -0.06   0.02  -0.31    -0.15   0.01  -0.81
  13   1     0.01   0.11   0.05    -0.01  -0.25  -0.08     0.02   0.24   0.12
  14   1     0.06  -0.02   0.25     0.02   0.01   0.08    -0.05   0.01  -0.23
  15   1    -0.01  -0.08  -0.04    -0.04  -0.47  -0.20     0.01   0.10   0.05
  16   1    -0.31  -0.25   0.27     0.08   0.08  -0.07     0.05   0.04  -0.05
  17   1     0.07   0.56   0.17    -0.05  -0.43  -0.14    -0.00   0.01   0.01
  18   1    -0.01  -0.05  -0.02     0.01   0.08   0.03     0.00  -0.01  -0.00
  19   1     0.05  -0.02   0.00    -0.04   0.01  -0.00    -0.01   0.01  -0.00
  20   1     0.01   0.01  -0.01    -0.01  -0.01   0.01    -0.04  -0.04   0.04
                     49                     50                     51
                        a                      a                      a 
 Frequencies --  3029.0354              3030.4515              3031.3789
 Red. masses --     1.9552                 1.9238                 1.9225
 Frc consts  --     0.0000                 0.0000                 0.0000
 IR Inten    --    40.2376                74.0315                70.1757
 Raman Activ --     0.0000                 0.0000                 0.0000
 Depolar     --     0.0000                 0.0000                 0.0000
 Atom AN      X      Y      Z        X      Y      Z        X      Y      Z
   1   6     0.05   0.15   0.23     0.03   0.02   0.07     0.16  -0.21   0.09
   2   6     0.01   0.02   0.04     0.00   0.01   0.01     0.01  -0.03   0.01
   3   6     0.00   0.01   0.01     0.00   0.01   0.01     0.00  -0.01   0.01
   4   6     0.00  -0.00   0.00     0.00   0.01   0.01     0.00  -0.00   0.00
   5   6     0.00  -0.01  -0.00    -0.00   0.03   0.02     0.00  -0.00  -0.00
   6   6     0.03  -0.06  -0.02    -0.11   0.24   0.07     0.05  -0.01  -0.01
   7   1    -0.01   0.03   0.03    -0.05   0.03   0.00    -0.57   0.29  -0.11
   8   1    -0.03  -0.59  -0.19    -0.00  -0.11  -0.03     0.06   0.48   0.20
   9   1    -0.12   0.03  -0.66    -0.04   0.01  -0.22    -0.06  -0.03  -0.42
  10   1    -0.00  -0.07  -0.03    -0.00  -0.02  -0.01     0.00   0.08   0.03
  11   1    -0.02   0.00  -0.08    -0.01   0.00  -0.03    -0.01  -0.00  -0.07
  12   1    -0.01   0.00  -0.04    -0.00   0.00  -0.03    -0.01  -0.00  -0.05
  13   1     0.00  -0.02  -0.01    -0.00  -0.02  -0.01     0.00   0.04   0.02
  14   1    -0.00   0.00  -0.01    -0.00   0.00  -0.02    -0.00   0.00  -0.01
  15   1    -0.00   0.00   0.00    -0.00  -0.05  -0.02     0.00   0.02   0.01
  16   1    -0.00  -0.00   0.00     0.01   0.01  -0.01    -0.01  -0.00   0.00
  17   1     0.00   0.02   0.01    -0.01  -0.11  -0.03     0.00   0.01   0.00
  18   1     0.02   0.20   0.07    -0.05  -0.73  -0.27     0.01  -0.00  -0.00
  19   1    -0.13   0.05  -0.00     0.44  -0.16   0.01    -0.14   0.06  -0.00
  20   1    -0.01  -0.02   0.01    -0.01   0.04   0.01    -0.04  -0.04   0.04
                     52                     53                     54
                        a                      a                      a 
 Frequencies --  3033.6498              3037.2504              3046.4544
 Red. masses --     1.7150                 1.2738                 1.5070
 Frc consts  --     0.0000                 0.0000                 0.0000
 IR Inten    --    48.1068                25.6499                39.8053
 Raman Activ --     0.0000                 0.0000                 0.0000
 Depolar     --     0.0000                 0.0000                 0.0000
 Atom AN      X      Y      Z        X      Y      Z        X      Y      Z
   1   6    -0.02   0.03  -0.02    -0.14  -0.03   0.04    -0.00   0.00  -0.01
   2   6    -0.00   0.01  -0.00    -0.00  -0.00   0.00    -0.00   0.00  -0.00
   3   6    -0.00   0.01  -0.01     0.00  -0.00   0.00    -0.00   0.00  -0.01
   4   6    -0.00   0.00  -0.00    -0.00   0.00  -0.00    -0.00   0.00  -0.01
   5   6     0.02   0.02  -0.01     0.00   0.00  -0.00     0.01   0.01  -0.01
   6   6     0.23   0.08  -0.00     0.02   0.01  -0.01     0.08   0.12  -0.15
   7   1     0.05  -0.02   0.01     0.60  -0.34   0.13    -0.00   0.00  -0.00
   8   1    -0.01  -0.09  -0.04     0.01   0.46   0.17    -0.00  -0.02  -0.01
   9   1     0.02   0.00   0.10    -0.10   0.00  -0.47     0.01   0.00   0.03
  10   1    -0.00  -0.01  -0.01    -0.00   0.01   0.00     0.00   0.00  -0.00
  11   1     0.00   0.00   0.02    -0.00  -0.00  -0.00     0.00   0.00   0.01
  12   1     0.01  -0.00   0.04    -0.00  -0.00  -0.01     0.01  -0.00   0.06
  13   1    -0.00  -0.02  -0.01     0.00   0.01   0.00    -0.00  -0.01  -0.01
  14   1     0.00  -0.00   0.01     0.00  -0.00   0.00     0.00  -0.00   0.02
  15   1    -0.00  -0.01  -0.01     0.00  -0.00  -0.00     0.00  -0.00  -0.00
  16   1    -0.05  -0.03   0.04    -0.01  -0.01   0.01    -0.04  -0.03   0.03
  17   1    -0.00  -0.02  -0.01     0.00   0.00   0.00    -0.00  -0.01  -0.01
  18   1     0.01  -0.46  -0.17     0.00  -0.02  -0.01     0.02   0.16   0.03
  19   1    -0.69   0.33  -0.00    -0.04   0.02  -0.00     0.27  -0.09  -0.02
  20   1    -0.15  -0.15   0.18    -0.02  -0.02   0.03    -0.55  -0.49   0.54
