20
 energy: -19.991667269893 gnorm: 0.023058241735 xtb: 6.6.1 (8d0f1dd)
C            2.95078700000000        0.28369400000000       -0.51082500000000
C            1.82293000000000       -0.44091900000000        0.20715300000000
C            0.46277400000000        0.22695700000000       -0.00273500000000
C           -0.67693500000000       -0.50305000000000        0.70918500000000
C           -2.03553600000000        0.19027300000000        0.56289000000000
C           -2.55218400000000        0.20811900000000       -0.86777100000000
H            3.91740600000000       -0.20104000000000       -0.35285900000000
H            3.04104400000000        1.31555900000000       -0.16473900000000
H            2.77412200000000        0.32058300000000       -1.58788200000000
H            1.76971400000000       -1.48528200000000       -0.12924500000000
H            2.03596200000000       -0.50059400000000        1.28307200000000
H            0.25237800000000        0.29252200000000       -1.07696700000000
H            0.50646800000000        1.26733800000000        0.34316600000000
H           -0.42255800000000       -0.60936900000000        1.77225400000000
H           -0.74619800000000       -1.52959600000000        0.32822900000000
H           -2.77279500000000       -0.30256100000000        1.21299400000000
H           -1.96003400000000        1.21689800000000        0.94608000000000
H           -2.62499800000000       -0.80296000000000       -1.27374500000000
H           -3.54396600000000        0.66171700000000       -0.93957600000000
H           -1.89091500000000        0.77298200000000       -1.52740900000000
20
 energy: -19.992763154349 gnorm: 0.010130423681 xtb: 6.6.1 (8d0f1dd)
C            2.94135357582463        0.28515163081116       -0.50933265927313
C            1.81706682617800       -0.44307840723480        0.21054995525448
C            0.46373730830696        0.23124424358595       -0.00649796459006
C           -0.67250224870265       -0.50367378066741        0.70212813195897
C           -2.02663970343429        0.19315456964112        0.56049612759931
C           -2.54727826531945        0.20588599393217       -0.86848480504831
H            3.89769915080724       -0.20968916817725       -0.34255461396691
H            3.02773456392869        1.31247673404488       -0.15560394906385
H            2.76030689553419        0.31377669768882       -1.58378095101782
H            1.76581757434277       -1.47876695826650       -0.14332084144030
H            2.03430578403446       -0.48445691404041        1.28365723718388
H            0.25913864944273        0.27727241109216       -1.08009653966896
H            0.51050576847441        1.26359078695116        0.35684170456618
H           -0.42789254341194       -0.58994378120005        1.76668794374044
H           -0.74696916643825       -1.52368796269530        0.31015596050723
H           -2.75565277997101       -0.31710792476586        1.20043614262031
H           -1.94584752675061        1.22101383412913        0.93091470533704
H           -2.62026129325574       -0.80769664845007       -1.26261943194402
H           -3.53746089856794        0.65857173263985       -0.91679724011703
H           -1.88969567102220        0.77723391098125       -1.52150891263745
20
 energy: -19.992898104054 gnorm: 0.002093012738 xtb: 6.6.1 (8d0f1dd)
C            2.93971227977654        0.28547370362723       -0.50829363854596
C            1.81467653450306       -0.44448581399775        0.21278111858991
C            0.46454942954716        0.23261376235250       -0.00860733812663
C           -0.67016582280610       -0.50314420630726        0.69989329456946
C           -2.02354366196272        0.19392925643451        0.55986043425603
C           -2.54781244790413        0.20577275893465       -0.87000756594459
H            3.89180388811900       -0.21274604597973       -0.33820044969729
H            3.02132880192524        1.31049024722445       -0.15189916525211
H            2.75411686512457        0.31124094389617       -1.58037551524304
H            1.76313931044774       -1.47548949876964       -0.14662602059564
H            2.03201275070277       -0.47880484687605        1.28349381026816
H            0.26441448500292        0.27238576518298       -1.08092449260922
H            0.51250688928821        1.26035725739179        0.36102925101935
H           -0.42739706359011       -0.58382946404011        1.76309373831178
H           -0.74643723411024       -1.51841190263647        0.30194261202553
H           -2.74747376830950       -0.32168111391088        1.19667724198056
H           -1.93843707987155        1.22111126946178        0.92358651136370
H           -2.61839431193837       -0.80851983184849       -1.25796866639887
H           -3.53783050754877        0.65581657499102       -0.90687842603475
H           -1.89330333639569        0.77919218486930       -1.52130673393637
20
 energy: -19.992905938791 gnorm: 0.000489432240 xtb: 6.6.1 (8d0f1dd)
C            2.94055647211095        0.28527010614853       -0.50761671719944
C            1.81465346919857       -0.44505305683879        0.21372884883513
C            0.46518656208752        0.23322592861065       -0.00930602859613
C           -0.66966851039783       -0.50332960286323        0.69845495294902
C           -2.02313290657793        0.19465820830951        0.56002235776863
C           -2.54954415878629        0.20552149644132       -0.87011453693503
H            3.89234498692005       -0.21277879408307       -0.33729764559900
H            3.02082879501672        1.31004072841408       -0.15102529536410
H            2.75394991294168        0.31076411361328       -1.57926300368823
H            1.76294272540700       -1.47561791741203       -0.14547456440272
H            2.03123619433029       -0.47874370662589        1.28411365351961
H            0.26628564061046        0.27295225215032       -1.08143547858636
H            0.51309945883083        1.26055170503832        0.36032813441292
H           -0.42620276319153       -0.58464587197233        1.76101315138163
H           -0.74604501503777       -1.51788824695653        0.29969566137247
H           -2.74629670640250       -0.32052134243500        1.19714418626920
H           -1.93703505992601        1.22177372920685        0.92243291856678
H           -2.61861341064829       -0.80879485063261       -1.25760727739009
H           -3.54012759295403        0.65379495816326       -0.90457157174979
H           -1.89695209353187        0.78009116372338       -1.52195174556449
20
 energy: -19.992913202933 gnorm: 0.001703251856 xtb: 6.6.1 (8d0f1dd)
C            2.94314610811103        0.28459272201352       -0.50561483648515
C            1.81532829107133       -0.44561269605157        0.21543313295875
C            0.46676625086205        0.23400488037284       -0.01123050627232
C           -0.66895746931124       -0.50337539630289        0.69489999580596
C           -2.02250913684179        0.19611195124579        0.55993646155788
C           -2.55444397761290        0.20498118957870       -0.86962195620256
H            3.89475859965410       -0.21287056933683       -0.33465669126803
H            3.02142281115770        1.30923664580853       -0.14894719938117
H            2.75570006292157        0.30953079219023       -1.57687576115463
H            1.76341364519825       -1.47614733557747       -0.14254314318248
H            2.02983665297287       -0.47839397217693        1.28583669724323
H            0.27045585623549        0.27462229955888       -1.08353873009709
H            0.51433857140124        1.26102204623007        0.35829710134238
H           -0.42380293604159       -0.58804841149346        1.75652562753338
H           -0.74598968869179       -1.51658972814111        0.29374392348040
H           -2.74432180767522       -0.31681131980884        1.19957516029058
H           -1.93390808653634        1.22351081478859        0.91967843812227
H           -2.61963037449844       -0.80952411463795       -1.25670876172870
H           -3.54717041115248        0.64824729988031       -0.89937526735000
H           -1.90696696122384        0.78278390185958       -1.52354368521271
20
 energy: -19.992918708435 gnorm: 0.001173377818 xtb: 6.6.1 (8d0f1dd)
C            2.94469125300863        0.28413668163261       -0.50399729542109
C            1.81595458941841       -0.44526707039485        0.21590815557286
C            0.46759612471436        0.23415138861625       -0.01256069372614
C           -0.66888399675262       -0.50342086985403        0.69214144565236
C           -2.02190726666767        0.19716254424603        0.55943830539582
C           -2.55762215703537        0.20449356123927       -0.86853015241632
H            3.89613791348228       -0.21342178066038       -0.33187966412301
H            3.02311147977355        1.30895867464640       -0.14765364857857
H            2.75864833536704        0.30870458575142       -1.57556972031912
H            1.76443824548249       -1.47634058264443       -0.14113849146964
H            2.02907527076317       -0.47737886371173        1.28680255810383
H            0.27255548673217        0.27514540302659       -1.08529105815194
H            0.51474785580926        1.26132861655210        0.35710756232606
H           -0.42324516402043       -0.59074376550964        1.75365127535889
H           -0.74688819871054       -1.51593652757822        0.28897817778993
H           -2.74270873724466       -0.31411382754584        1.20187320483989
H           -1.93166558353150        1.22509044394564        0.91771025210377
H           -2.62041316295892       -0.81017458044906       -1.25581309414652
H           -3.55212877694866        0.64413963706565       -0.89565536831746
H           -1.91402751068101        0.78475733162620       -1.52425175047359
20
 energy: -19.992923879636 gnorm: 0.000177528164 xtb: 6.6.1 (8d0f1dd)
C            2.94757621828738        0.28342665819278       -0.50068299860302
C            1.81686990906523       -0.44410322535630        0.21636948161265
C            0.46870754064897        0.23428248940282       -0.01564537178331
C           -0.66867456529303       -0.50365080536036        0.68687455808922
C           -2.02053758777493        0.19913905908631        0.55844310911937
C           -2.56346329332388        0.20355709681241       -0.86601648578343
H            3.89812472685140       -0.21512742433769       -0.32501826951227
H            3.02691073759173        1.30864762758622       -0.14524501807318
H            2.76580878492848        0.30724462002356       -1.57315024658000
H            1.76646975154513       -1.47597837286285       -0.13930422188283
H            2.02721352130426       -0.47480816966895        1.28815187741727
H            0.27553658826984        0.27541126293341       -1.08894928661561
H            0.51467136386936        1.26149523182198        0.35465125669406
H           -0.42254882213119       -0.59610296659626        1.74806625067917
H           -0.74915484211250       -1.51440509000619        0.27930238664570
H           -2.73895982672044       -0.30894366085081        1.20661514100244
H           -1.92665803338866        1.22803184344148        0.91369135996713
H           -2.62191854985030       -0.81147128014630       -1.25340499190552
H           -3.56123502969809        0.63646958135772       -0.88818625538667
H           -1.92727259206876        0.78815652452701       -1.52529227510114
20
 energy: -19.992924207388 gnorm: 0.000127921655 xtb: 6.6.1 (8d0f1dd)
C            2.94808337745690        0.28349983703744       -0.50025476591927
C            1.81679526996953       -0.44385471526155        0.21601255573102
C            0.46852458486720        0.23431306398316       -0.01611897980761
C           -0.66873719512783       -0.50392352351854        0.68634261734985
C           -2.02048487464568        0.19939280986369        0.55860583128922
C           -2.56387923157828        0.20340554245678       -0.86557036477502
H            3.89837986923137       -0.21525916277950       -0.32367342911826
H            3.02750329624751        1.30881304021186       -0.14501698442960
H            2.76740288312962        0.30719849465102       -1.57292100862139
H            1.76662006689358       -1.47577324015954       -0.13962368127853
H            2.02663501537497       -0.47456555356832        1.28789247679946
H            0.27522714359872        0.27510746110043       -1.08938956780105
H            0.51416227054985        1.26165289466536        0.35387760927596
H           -0.42236092103369       -0.59674595559129        1.74739704580250
H           -0.74952447033200       -1.51454459509491        0.27851493716688
H           -2.73871191667700       -0.30828858545539        1.20728231210123
H           -1.92611684476931        1.22834501784357        0.91360732611903
H           -2.62237511889474       -0.81165287460820       -1.25292350791508
H           -3.56164837992490        0.63621222814819       -0.88760063279339
H           -1.92802882433582        0.78793881607572       -1.52516978917596
