20
 energy: -19.992924207389 gnorm: 0.000127913077 xtb: 6.6.1 (8d0f1dd)
C            2.94808311557535        0.28348352780452       -0.50026555146833
C            1.81679369994645       -0.44386385096350        0.21600698859013
C            0.46852575545083        0.23431058265797       -0.01612102422025
C           -0.66873743785495       -0.50391882412980        0.68634583119026
C           -2.02048188068128        0.19940436403560        0.55861253610158
C           -2.56388118791829        0.20341745620449       -0.86556177015123
H            3.89837761222479       -0.21528013955628       -0.32368666133053
H            3.02750964290254        1.30879693512200       -0.14502983671830
H            2.76739900101604        0.30718125932243       -1.57293120483034
H            1.76661185235711       -1.47578273382484       -0.13962727223462
H            2.02663702612290       -0.47457391722434        1.28788623077204
H            0.27522478135397        0.27510411868672       -1.08939100866982
H            0.51417011180021        1.26165082012527        0.35387361250866
H           -0.42235794599388       -0.59674069435434        1.74739956162511
H           -0.74953142824181       -1.51454018447572        0.27852019687771
H           -2.73870931659485       -0.30827213850556        1.20729241006517
H           -1.92610722403965        1.22835669747797        0.91361190566173
H           -2.62238374218193       -0.81164133061297       -1.25291293748802
H           -3.56164814697763        0.63622932774669       -0.88758931068824
H           -1.92803002252528        0.78794624930347       -1.52516443428680
