 Entering Gaussian System
 *********************************************
 Gaussian 98:
 frequency output generated by the xtb code
 *********************************************
                         Standard orientation:
 --------------------------------------------------------------------
  Center     Atomic     Atomic              Coordinates (Angstroms)
  Number     Number      Type              X           Y           Z
 --------------------------------------------------------------------
    1          6             0        2.733792    0.368022    0.509311
    2          6             0        1.415889   -0.375150    0.324164
    3          6             0        0.529075    0.308665   -0.714041
    4          6             0       -0.756034   -0.460468   -1.024848
    5          6             0       -1.716598   -0.618490    0.155436
    6          6             0       -2.234851    0.710954    0.691933
    7          1             0        3.286164    0.406962   -0.427277
    8          1             0        3.353583   -0.128044    1.252796
    9          1             0        2.552044    1.388584    0.840102
   10          1             0        1.618507   -1.400518    0.006010
   11          1             0        0.896950   -0.419715    1.282856
   12          1             0        1.096338    0.411066   -1.642959
   13          1             0        0.283446    1.315632   -0.372885
   14          1             0       -0.489080   -1.455601   -1.389868
   15          1             0       -1.280617    0.056149   -1.832746
   16          1             0       -2.566425   -1.219031   -0.178493
   17          1             0       -1.226467   -1.169529    0.959536
   18          1             0       -2.991245    0.540595    1.454921
   19          1             0       -1.432197    1.292438    1.137561
   20          1             0       -2.681518    1.296343   -0.109083
 --------------------------------------------------------------------
     1 basis functions        1 primitive gaussians
     1 alpha electrons        1 beta electrons
 
 Harmonic frequencies (cm**-1), IR intensities (KM/Mole),
 Raman scattering activities (A**4/amu), Raman depolarization ratios,
 reduced masses (AMU), force constants (mDyne/A) and normal coordinates:
                      1                      2                      3
                        a                      a                      a 
 Frequencies --    50.6628                72.5064               151.8653
 Red. masses --    99.0000                99.0000                99.0000
 Frc consts  --    99.0000                99.0000                99.0000
 IR Inten    --    99.0000                99.0000                99.0000
 Raman Activ --     0.0000                 0.0000                 0.0000
 Depolar     --     0.0000                 0.0000                 0.0000
 Atom AN      X      Y      Z        X      Y      Z        X      Y      Z
   1   6    -0.21   0.09   0.11     0.22  -0.27  -0.26     0.12   0.07  -0.22
   2   6    -0.25   0.15   0.14    -0.16   0.27   0.31     0.10   0.01   0.08
   3   6    -0.02  -0.10  -0.22     0.01   0.16   0.09    -0.11   0.04   0.28
   4   6    -0.04  -0.07  -0.18     0.06   0.12  -0.02     0.06  -0.15   0.09
   5   6    -0.00  -0.06  -0.15     0.04  -0.07  -0.06    -0.27  -0.04  -0.16
   6   6     0.50  -0.03   0.27    -0.17  -0.17  -0.03     0.09   0.05  -0.04
   7   1    -0.01  -0.08   0.06     0.05  -0.33  -0.10    -0.05   0.05  -0.11
   8   1    -0.11   0.09   0.11     0.01  -0.03   0.00     0.10   0.01  -0.13
   9   1    -0.05   0.07  -0.08     0.22   0.01  -0.26     0.05   0.01  -0.03
  10   1    -0.09   0.01   0.15    -0.20   0.00   0.23     0.03   0.01  -0.01
  11   1    -0.12   0.15   0.02    -0.02   0.29   0.12     0.08  -0.02   0.05
  12   1     0.04  -0.13  -0.05     0.04   0.00   0.04    -0.04   0.11   0.09
  13   1     0.01   0.01  -0.17    -0.01   0.06  -0.03    -0.10  -0.03   0.15
  14   1    -0.03  -0.02  -0.06     0.04   0.05  -0.03     0.07  -0.05   0.09
  15   1    -0.01  -0.01  -0.05     0.01   0.05   0.00     0.06  -0.09  -0.04
  16   1    -0.07   0.09  -0.07     0.04  -0.05  -0.03    -0.11   0.09  -0.14
  17   1    -0.03  -0.13  -0.10     0.03  -0.01  -0.02    -0.19  -0.10  -0.04
  18   1     0.13   0.00   0.06    -0.03  -0.09   0.00    -0.23   0.06  -0.26
  19   1     0.21  -0.14   0.13    -0.07  -0.01  -0.02     0.01  -0.21   0.31
  20   1     0.21   0.11   0.13    -0.09  -0.07   0.00     0.37   0.21  -0.06
                      4                      5                      6
                        a                      a                      a 
 Frequencies --   224.0088               268.2074               236.7250
 Red. masses --    99.0000                99.0000                99.0000
 Frc consts  --    99.0000                99.0000                99.0000
 IR Inten    --    99.0000                99.0000                99.0000
 Raman Activ --     0.0000                 0.0000                 0.0000
 Depolar     --     0.0000                 0.0000                 0.0000
 Atom AN      X      Y      Z        X      Y      Z        X      Y      Z
   1   6     0.04   0.16  -0.03     0.07   0.05   0.04    -0.06  -0.17   0.14
   2   6     0.23  -0.20  -0.05     0.06   0.04   0.06    -0.12   0.06  -0.26
   3   6     0.13  -0.17   0.04     0.25  -0.24  -0.30    -0.11   0.23  -0.14
   4   6    -0.04   0.11   0.01    -0.06   0.14  -0.01     0.02  -0.03   0.05
   5   6    -0.16   0.08  -0.08     0.01   0.09   0.06     0.27  -0.05   0.25
   6   6    -0.18  -0.01   0.12    -0.31  -0.06   0.16     0.02  -0.01  -0.07
   7   1     0.22  -0.29   0.10    -0.06   0.16  -0.03     0.15  -0.21   0.14
   8   1    -0.14   0.36   0.32     0.09  -0.08  -0.11    -0.19   0.01   0.22
   9   1    -0.10   0.17  -0.44     0.03  -0.04   0.17    -0.00   0.01  -0.13
  10   1     0.13  -0.04  -0.03     0.02  -0.02   0.12    -0.05   0.03  -0.13
  11   1     0.06  -0.11  -0.02    -0.02   0.11   0.00    -0.06  -0.03  -0.09
  12   1     0.02  -0.04   0.00     0.08  -0.26  -0.10    -0.05   0.12  -0.05
  13   1     0.08  -0.05   0.04     0.17   0.01  -0.23    -0.07   0.04   0.01
  14   1    -0.07   0.03  -0.04    -0.11   0.03  -0.06     0.05  -0.00   0.03
  15   1     0.03   0.10   0.02    -0.02   0.11   0.04    -0.07  -0.07   0.02
  16   1    -0.05   0.05  -0.07     0.04  -0.01   0.01     0.11  -0.10   0.14
  17   1    -0.08  -0.02  -0.04     0.02   0.04   0.01     0.14   0.08   0.09
  18   1    -0.05  -0.05   0.03    -0.29  -0.09  -0.17    -0.23   0.02  -0.26
  19   1    -0.05  -0.02   0.06    -0.18  -0.10   0.32    -0.09  -0.07   0.24
  20   1    -0.05   0.04   0.06     0.13   0.09   0.00     0.29   0.06  -0.13
                      7                      8                      9
                        a                      a                      a 
 Frequencies --   304.9309               396.8108               490.9599
 Red. masses --    99.0000                99.0000                99.0000
 Frc consts  --    99.0000                99.0000                99.0000
 IR Inten    --    99.0000                99.0000                99.0000
 Raman Activ --     0.0000                 0.0000                 0.0000
 Depolar     --     0.0000                 0.0000                 0.0000
 Atom AN      X      Y      Z        X      Y      Z        X      Y      Z
   1   6    -0.29   0.11  -0.22    -0.28  -0.03  -0.15    -0.26  -0.04  -0.12
   2   6    -0.11  -0.27   0.23    -0.17  -0.16   0.02    -0.13  -0.09  -0.08
   3   6     0.00  -0.13   0.24     0.09   0.06   0.01     0.30   0.22  -0.09
   4   6    -0.07   0.23  -0.12     0.36  -0.18  -0.08     0.23   0.21   0.44
   5   6     0.29  -0.04   0.09     0.22   0.32  -0.11    -0.15  -0.19   0.10
   6   6     0.15  -0.00  -0.18    -0.18   0.06   0.25     0.04  -0.09  -0.10
   7   1    -0.18   0.05  -0.12    -0.13  -0.00  -0.07    -0.10  -0.00  -0.05
   8   1     0.05   0.14  -0.10    -0.01   0.05  -0.06    -0.03   0.04  -0.04
   9   1    -0.16   0.03  -0.10    -0.12  -0.01  -0.07    -0.12  -0.01  -0.06
  10   1    -0.02  -0.08   0.07    -0.06  -0.04  -0.01    -0.07  -0.02  -0.05
  11   1     0.01  -0.06   0.09    -0.05  -0.04   0.00    -0.09  -0.03  -0.05
  12   1     0.05  -0.00   0.10     0.08   0.08   0.04     0.05  -0.12  -0.07
  13   1     0.03  -0.05   0.12    -0.03  -0.02   0.05     0.24   0.13  -0.12
  14   1    -0.08   0.11  -0.21     0.17  -0.12   0.21     0.13   0.07   0.12
  15   1    -0.04   0.22   0.08     0.14  -0.24  -0.17     0.03   0.01   0.12
  16   1     0.11  -0.10   0.12     0.08   0.07  -0.03    -0.03   0.04  -0.17
  17   1     0.19   0.07   0.01     0.05   0.09  -0.02    -0.21  -0.16   0.06
  18   1    -0.04   0.04  -0.13    -0.03  -0.18   0.05     0.01   0.10  -0.00
  19   1     0.00   0.01   0.02    -0.13   0.06   0.15     0.07  -0.04  -0.10
  20   1     0.14  -0.02  -0.12    -0.13   0.06   0.14     0.04  -0.06  -0.08
                     10                     11                     12
                        a                      a                      a 
 Frequencies --   759.0552               799.8978              1505.8215
 Red. masses --    99.0000                99.0000                99.0000
 Frc consts  --    99.0000                99.0000                99.0000
 IR Inten    --    99.0000                99.0000                99.0000
 Raman Activ --     0.0000                 0.0000                 0.0000
 Depolar     --     0.0000                 0.0000                 0.0000
 Atom AN      X      Y      Z        X      Y      Z        X      Y      Z
   1   6    -0.04  -0.01  -0.02    -0.04   0.03   0.02    -0.08   0.11   0.15
   2   6     0.02   0.00  -0.14    -0.11   0.18   0.09    -0.02   0.01   0.04
   3   6     0.08  -0.12  -0.12    -0.12  -0.10   0.07    -0.00  -0.01   0.00
   4   6     0.16  -0.13   0.04     0.07  -0.09   0.05     0.00   0.00   0.01
   5   6     0.11  -0.01   0.12     0.23   0.07   0.03     0.01   0.00  -0.00
   6   6    -0.00   0.07   0.04     0.05   0.03   0.01     0.05   0.02   0.00
   7   1     0.06   0.08   0.04    -0.11  -0.18  -0.06     0.36  -0.12   0.22
   8   1    -0.04  -0.01   0.02    -0.02  -0.09  -0.06     0.28  -0.39  -0.50
   9   1    -0.09  -0.03   0.04     0.25   0.07  -0.04    -0.30   0.07  -0.35
  10   1    -0.09  -0.10   0.25     0.18   0.18  -0.30     0.04   0.03  -0.03
  11   1    -0.08   0.32  -0.07    -0.01  -0.36   0.01    -0.02   0.02   0.00
  12   1    -0.05   0.35  -0.03     0.04  -0.19   0.04    -0.02   0.03  -0.01
  13   1    -0.18  -0.18   0.27    -0.08   0.03  -0.18     0.03   0.01  -0.01
  14   1    -0.13   0.01  -0.22    -0.08   0.00  -0.14    -0.02   0.00  -0.02
  15   1    -0.03   0.18   0.19    -0.01   0.12   0.13     0.00  -0.02  -0.02
  16   1    -0.06   0.23  -0.17    -0.04   0.26  -0.17    -0.00   0.00   0.01
  17   1    -0.22  -0.22   0.03    -0.16  -0.21  -0.02    -0.01  -0.00   0.00
  18   1    -0.04  -0.02  -0.03    -0.04  -0.12  -0.08    -0.09   0.06  -0.08
  19   1    -0.12   0.18   0.02    -0.16   0.21   0.05     0.05  -0.08   0.02
  20   1    -0.04  -0.11  -0.07    -0.05  -0.14  -0.07    -0.15  -0.06   0.04
                     13                     14                     15
                        a                      a                      a 
 Frequencies --  1508.3647               860.3296              1516.8582
 Red. masses --    99.0000                99.0000                99.0000
 Frc consts  --    99.0000                99.0000                99.0000
 IR Inten    --    99.0000                99.0000                99.0000
 Raman Activ --     0.0000                 0.0000                 0.0000
 Depolar     --     0.0000                 0.0000                 0.0000
 Atom AN      X      Y      Z        X      Y      Z        X      Y      Z
   1   6     0.06  -0.15   0.13    -0.09   0.01   0.06    -0.01   0.02  -0.02
   2   6     0.02  -0.07   0.07    -0.05   0.09   0.08     0.01   0.02  -0.01
   3   6    -0.02  -0.00  -0.01     0.28   0.05  -0.14     0.03   0.12  -0.06
   4   6    -0.00  -0.00  -0.00     0.18  -0.18  -0.18     0.00   0.01  -0.02
   5   6    -0.00  -0.01   0.01    -0.22  -0.19   0.11    -0.01  -0.04   0.06
   6   6     0.01  -0.01   0.03    -0.17   0.15   0.08     0.03  -0.04   0.17
   7   1    -0.17   0.62  -0.07    -0.20  -0.17  -0.10     0.02  -0.07   0.01
   8   1    -0.24  -0.21   0.08     0.06  -0.03  -0.08     0.02   0.02  -0.01
   9   1     0.17   0.20  -0.55     0.19   0.06  -0.06    -0.02  -0.02   0.06
  10   1     0.02   0.03  -0.11     0.15   0.09  -0.09    -0.02  -0.01   0.03
  11   1    -0.04   0.11  -0.01    -0.15  -0.17  -0.07    -0.01  -0.03  -0.01
  12   1     0.01   0.02   0.00     0.13   0.24   0.02     0.03  -0.33  -0.02
  13   1     0.01   0.01  -0.01    -0.11  -0.07   0.08    -0.17  -0.13   0.26
  14   1     0.00  -0.00   0.01    -0.05   0.00  -0.25     0.00  -0.00   0.01
  15   1     0.01   0.02   0.01     0.02   0.13   0.09     0.01   0.01  -0.00
  16   1    -0.01   0.01  -0.01     0.02  -0.20   0.11    -0.02   0.07  -0.07
  17   1     0.01   0.01   0.00    -0.01   0.13   0.13     0.07   0.04  -0.00
  18   1    -0.05  -0.03  -0.06     0.00   0.20   0.11    -0.32  -0.20  -0.35
  19   1     0.03   0.02  -0.08     0.12  -0.14  -0.04     0.19   0.15  -0.53
  20   1     0.00   0.04   0.03     0.02   0.17   0.08     0.03   0.23   0.17
                     16                     17                     18
                        a                      a                      a 
 Frequencies --   875.3053              1506.8311              1500.8415
 Red. masses --    99.0000                99.0000                99.0000
 Frc consts  --    99.0000                99.0000                99.0000
 IR Inten    --    99.0000                99.0000                99.0000
 Raman Activ --     0.0000                 0.0000                 0.0000
 Depolar     --     0.0000                 0.0000                 0.0000
 Atom AN      X      Y      Z        X      Y      Z        X      Y      Z
   1   6    -0.15  -0.00  -0.11    -0.03   0.02   0.03     0.00  -0.01  -0.02
   2   6    -0.04   0.19  -0.20     0.02   0.07  -0.03     0.03   0.04  -0.01
   3   6    -0.07  -0.24   0.19     0.01  -0.01   0.02     0.01   0.03  -0.01
   4   6     0.18  -0.05   0.32    -0.00  -0.02  -0.06    -0.02  -0.03  -0.04
   5   6     0.04   0.10  -0.20    -0.07  -0.10   0.05    -0.03  -0.21   0.06
   6   6     0.00  -0.01  -0.16    -0.17  -0.07   0.00     0.06   0.07  -0.03
   7   1     0.11   0.02   0.06     0.09   0.01   0.06    -0.02   0.03  -0.01
   8   1    -0.23  -0.16   0.02     0.06  -0.09  -0.11    -0.03   0.03   0.04
   9   1     0.03  -0.02   0.07    -0.04   0.03  -0.11     0.04  -0.00   0.02
  10   1    -0.02   0.04  -0.02    -0.09  -0.07   0.17    -0.06  -0.03   0.07
  11   1     0.05   0.08  -0.02    -0.01  -0.21  -0.01    -0.05  -0.11  -0.03
  12   1    -0.09  -0.11   0.00    -0.02   0.05  -0.01     0.01  -0.08  -0.00
  13   1    -0.04  -0.05  -0.01     0.02   0.02  -0.06    -0.02  -0.02   0.06
  14   1    -0.08   0.03  -0.12     0.05  -0.04   0.12     0.04  -0.03   0.10
  15   1     0.11   0.22   0.19    -0.03   0.11   0.08    -0.01   0.09   0.07
  16   1     0.13  -0.15  -0.02    -0.04   0.14  -0.19    -0.14   0.40  -0.37
  17   1     0.01   0.25   0.10     0.18   0.18   0.01     0.37   0.42   0.07
  18   1     0.12  -0.18   0.03     0.29  -0.22   0.25    -0.07   0.13  -0.05
  19   1     0.10  -0.20   0.04    -0.14   0.27  -0.12     0.06  -0.22   0.19
  20   1    -0.07   0.26   0.19     0.52   0.21  -0.14    -0.28  -0.21   0.00
                     19                     20                     21
                        a                      a                      a 
 Frequencies --   930.5025               943.0999              1148.6218
 Red. masses --    99.0000                99.0000                99.0000
 Frc consts  --    99.0000                99.0000                99.0000
 IR Inten    --    99.0000                99.0000                99.0000
 Raman Activ --     0.0000                 0.0000                 0.0000
 Depolar     --     0.0000                 0.0000                 0.0000
 Atom AN      X      Y      Z        X      Y      Z        X      Y      Z
   1   6    -0.05   0.09   0.12     0.22  -0.08   0.16    -0.07  -0.01   0.08
   2   6     0.01  -0.03   0.02     0.01  -0.16   0.14     0.15  -0.06  -0.09
   3   6     0.02  -0.15  -0.17    -0.11   0.23  -0.19    -0.25   0.04   0.08
   4   6    -0.17   0.21   0.22    -0.06  -0.15   0.14     0.25  -0.03  -0.28
   5   6     0.04   0.20  -0.07     0.07   0.07  -0.06    -0.13   0.32   0.27
   6   6     0.11  -0.21  -0.14     0.06   0.01  -0.19     0.02  -0.32  -0.03
   7   1    -0.21  -0.21  -0.10    -0.14   0.04  -0.07    -0.10  -0.07  -0.03
   8   1     0.06  -0.07  -0.09     0.35   0.29   0.00     0.03  -0.01  -0.03
   9   1     0.30   0.10  -0.04    -0.18  -0.01  -0.10     0.05   0.02  -0.02
  10   1     0.26  -0.00   0.15    -0.13  -0.04  -0.04     0.08  -0.05   0.14
  11   1    -0.23  -0.01  -0.12    -0.07  -0.06  -0.00    -0.01   0.09  -0.04
  12   1    -0.15   0.22  -0.10    -0.07   0.02  -0.08    -0.15  -0.14  -0.06
  13   1     0.03  -0.13   0.26    -0.09   0.07  -0.11     0.11   0.08  -0.07
  14   1    -0.06  -0.03   0.28    -0.05   0.01  -0.13     0.22   0.08  -0.19
  15   1    -0.03  -0.11  -0.06    -0.18   0.04   0.19     0.08   0.07  -0.04
  16   1     0.05   0.01  -0.05     0.03   0.02  -0.04    -0.10   0.17   0.10
  17   1     0.03   0.05  -0.03    -0.13   0.11   0.14    -0.21   0.15   0.23
  18   1     0.05  -0.13  -0.03     0.11  -0.30  -0.02    -0.00   0.03   0.01
  19   1     0.03  -0.08  -0.01    -0.01  -0.07   0.09     0.08  -0.14  -0.07
  20   1     0.01  -0.02   0.00    -0.11   0.19   0.16     0.07  -0.10  -0.06
                     22                     23                     24
                        a                      a                      a 
 Frequencies --  1043.9572              1487.9309              1494.2356
 Red. masses --    99.0000                99.0000                99.0000
 Frc consts  --    99.0000                99.0000                99.0000
 IR Inten    --    99.0000                99.0000                99.0000
 Raman Activ --     0.0000                 0.0000                 0.0000
 Depolar     --     0.0000                 0.0000                 0.0000
 Atom AN      X      Y      Z        X      Y      Z        X      Y      Z
   1   6    -0.03  -0.15  -0.03     0.01  -0.01   0.01     0.02   0.02  -0.03
   2   6     0.02   0.19   0.04     0.00  -0.01   0.01    -0.06  -0.13   0.06
   3   6     0.23  -0.00  -0.02     0.02   0.10  -0.04    -0.04  -0.16   0.09
   4   6    -0.05  -0.04   0.04     0.05   0.09   0.22     0.02   0.02   0.07
   5   6    -0.14   0.34   0.08    -0.01  -0.04   0.02    -0.02  -0.09   0.05
   6   6     0.09  -0.36  -0.05    -0.05  -0.01  -0.05    -0.00  -0.03   0.07
   7   1     0.00   0.07   0.00    -0.00   0.02  -0.00    -0.01  -0.10  -0.01
   8   1     0.04   0.08   0.03    -0.01  -0.03  -0.01     0.02   0.05   0.02
   9   1    -0.21  -0.07  -0.02    -0.01   0.01  -0.04    -0.03  -0.04   0.12
  10   1    -0.14   0.08  -0.19     0.03   0.02  -0.03     0.18   0.12  -0.29
  11   1     0.09  -0.06   0.05    -0.02   0.04  -0.01    -0.01   0.35   0.02
  12   1     0.20   0.13   0.10     0.03  -0.27  -0.00    -0.03   0.42   0.03
  13   1    -0.27  -0.05  -0.08    -0.11  -0.09   0.21     0.19   0.16  -0.34
  14   1    -0.38  -0.15   0.12    -0.25   0.12  -0.51    -0.08   0.03  -0.15
  15   1     0.15   0.10  -0.03     0.07  -0.46  -0.34     0.02  -0.14  -0.10
  16   1    -0.04   0.07   0.06    -0.03   0.08  -0.08    -0.06   0.17  -0.16
  17   1     0.04   0.08  -0.03     0.07   0.09   0.02     0.16   0.17   0.03
  18   1    -0.00   0.03  -0.02     0.15   0.01   0.15    -0.10  -0.08  -0.11
  19   1     0.06  -0.10  -0.08    -0.07   0.01   0.10     0.05   0.09  -0.21
  20   1     0.09  -0.17  -0.11     0.11  -0.01  -0.07     0.05   0.11   0.06
                     25                     26                     27
                        a                      a                      a 
 Frequencies --  1498.0991              1060.7759              1228.9452
 Red. masses --    99.0000                99.0000                99.0000
 Frc consts  --    99.0000                99.0000                99.0000
 IR Inten    --    99.0000                99.0000                99.0000
 Raman Activ --     0.0000                 0.0000                 0.0000
 Depolar     --     0.0000                 0.0000                 0.0000
 Atom AN      X      Y      Z        X      Y      Z        X      Y      Z
   1   6     0.01   0.03  -0.00     0.04   0.15  -0.18     0.12  -0.18  -0.16
   2   6    -0.04  -0.17   0.11    -0.11  -0.16   0.18    -0.17   0.26   0.19
   3   6     0.00   0.10  -0.07     0.01   0.04  -0.15     0.03  -0.15  -0.08
   4   6    -0.02  -0.04  -0.10    -0.07   0.07  -0.13    -0.01  -0.06   0.05
   5   6    -0.02  -0.02  -0.01     0.12   0.09   0.20    -0.05   0.13  -0.18
   6   6    -0.06   0.02  -0.03    -0.08  -0.09  -0.12     0.05  -0.09   0.14
   7   1     0.01  -0.09   0.00     0.25   0.07   0.10     0.14   0.18   0.04
   8   1     0.02  -0.02  -0.02    -0.23  -0.15   0.03    -0.00   0.10   0.08
   9   1    -0.06  -0.02   0.05     0.10   0.00   0.11    -0.25  -0.10   0.01
  10   1     0.21   0.17  -0.43     0.05  -0.02   0.02     0.21   0.15  -0.07
  11   1    -0.03   0.51   0.02     0.17  -0.11   0.15    -0.14  -0.18  -0.02
  12   1     0.04  -0.29  -0.01     0.26   0.10   0.13    -0.10   0.06  -0.07
  13   1    -0.12  -0.11   0.25    -0.04  -0.02   0.02     0.25  -0.07   0.25
  14   1     0.11  -0.05   0.21    -0.02  -0.01   0.06     0.27   0.11  -0.13
  15   1    -0.02   0.20   0.14    -0.30  -0.17   0.03    -0.23  -0.08   0.12
  16   1    -0.01   0.02  -0.03     0.11   0.07  -0.23     0.02  -0.05   0.03
  17   1     0.01   0.04   0.02    -0.26  -0.00   0.21    -0.05   0.18   0.08
  18   1     0.16  -0.03   0.15     0.06  -0.00   0.06    -0.06   0.08  -0.02
  19   1    -0.05  -0.01   0.11     0.12  -0.21  -0.04    -0.02   0.08  -0.05
  20   1     0.13  -0.05  -0.11    -0.00   0.13   0.08     0.07  -0.14  -0.09
                     28                     29                     30
                        a                      a                      a 
 Frequencies --  1156.4978              1028.0840              1161.6726
 Red. masses --    99.0000                99.0000                99.0000
 Frc consts  --    99.0000                99.0000                99.0000
 IR Inten    --    99.0000                99.0000                99.0000
 Raman Activ --     0.0000                 0.0000                 0.0000
 Depolar     --     0.0000                 0.0000                 0.0000
 Atom AN      X      Y      Z        X      Y      Z        X      Y      Z
   1   6    -0.01   0.01  -0.09    -0.19  -0.01  -0.09     0.03  -0.18   0.07
   2   6     0.04  -0.13   0.25     0.12   0.06   0.00    -0.01   0.31  -0.13
   3   6    -0.22  -0.05  -0.37     0.32   0.19   0.10    -0.01  -0.35   0.09
   4   6     0.29   0.25   0.10    -0.22  -0.16  -0.09     0.03   0.33  -0.20
   5   6    -0.27  -0.11   0.03    -0.20  -0.04   0.06    -0.01  -0.20   0.28
   6   6     0.17   0.04  -0.00     0.23   0.01  -0.15     0.03   0.10  -0.15
   7   1     0.11   0.03   0.05     0.03  -0.03   0.02    -0.10   0.04  -0.04
   8   1    -0.09  -0.06   0.02    -0.17  -0.13  -0.01     0.14   0.13   0.01
   9   1    -0.01  -0.03   0.05     0.04  -0.01   0.04    -0.18  -0.05  -0.07
  10   1     0.13  -0.01   0.05     0.08   0.01   0.04    -0.04   0.10  -0.11
  11   1     0.15  -0.12   0.14     0.04   0.04   0.01    -0.04   0.01  -0.06
  12   1    -0.04   0.11  -0.07     0.11   0.03   0.04     0.11  -0.00   0.10
  13   1    -0.34  -0.07  -0.12     0.21   0.06   0.08    -0.06  -0.12   0.06
  14   1     0.12   0.08   0.02     0.03  -0.00  -0.06     0.15   0.04   0.16
  15   1     0.18   0.08  -0.04    -0.10  -0.05   0.00     0.05  -0.11  -0.19
  16   1    -0.08  -0.09   0.15    -0.23   0.09   0.28     0.00   0.01  -0.05
  17   1     0.06   0.09   0.01    -0.03   0.07   0.06    -0.16  -0.07   0.15
  18   1    -0.00  -0.14  -0.07     0.06  -0.42  -0.13     0.08  -0.17  -0.01
  19   1    -0.11   0.15   0.09    -0.17   0.15   0.16    -0.03  -0.02   0.09
  20   1    -0.06  -0.08  -0.01    -0.13   0.00   0.07    -0.10   0.15   0.12
                     31                     32                     33
                        a                      a                      a 
 Frequencies --  1247.4545              1094.5531              1274.3546
 Red. masses --    99.0000                99.0000                99.0000
 Frc consts  --    99.0000                99.0000                99.0000
 IR Inten    --    99.0000                99.0000                99.0000
 Raman Activ --     0.0000                 0.0000                 0.0000
 Depolar     --     0.0000                 0.0000                 0.0000
 Atom AN      X      Y      Z        X      Y      Z        X      Y      Z
   1   6     0.07  -0.05  -0.16     0.39   0.30   0.01     0.05  -0.05  -0.15
   2   6    -0.08   0.02   0.21    -0.54  -0.20  -0.17     0.06  -0.05   0.08
   3   6     0.02   0.08  -0.04     0.07  -0.10   0.09    -0.01   0.18   0.16
   4   6    -0.01  -0.06  -0.02     0.10   0.01  -0.01    -0.04  -0.01  -0.15
   5   6     0.15  -0.01   0.21    -0.15   0.04   0.06    -0.03  -0.08   0.03
   6   6    -0.19   0.01  -0.20     0.10  -0.07  -0.02     0.12   0.05   0.07
   7   1     0.14   0.11   0.04     0.16   0.07   0.03     0.12   0.08   0.03
   8   1    -0.07   0.01   0.05     0.06   0.03   0.00    -0.07  -0.01   0.03
   9   1    -0.11  -0.06   0.05     0.18   0.08   0.03    -0.09  -0.05   0.04
  10   1     0.18   0.06   0.01    -0.24  -0.06  -0.09     0.26  -0.00   0.15
  11   1    -0.18  -0.12  -0.04    -0.23  -0.05  -0.09    -0.40  -0.02  -0.21
  12   1    -0.27   0.02  -0.17     0.10  -0.02   0.07    -0.08  -0.08  -0.02
  13   1     0.09   0.02   0.05     0.07  -0.03   0.07    -0.05   0.10  -0.14
  14   1    -0.05  -0.03   0.00     0.01   0.00  -0.01    -0.30  -0.13   0.11
  15   1     0.29   0.12  -0.10     0.14   0.06  -0.04     0.18   0.06  -0.12
  16   1    -0.19   0.25   0.17    -0.08   0.00   0.15     0.24  -0.23  -0.23
  17   1     0.13  -0.29  -0.20     0.00   0.07   0.03    -0.20   0.11   0.22
  18   1     0.08  -0.02   0.07     0.00  -0.09  -0.04    -0.02  -0.04  -0.04
  19   1     0.10  -0.22  -0.02    -0.04   0.05   0.03    -0.07   0.12   0.05
  20   1    -0.03   0.22   0.11    -0.01  -0.06  -0.02    -0.02  -0.08  -0.02
                     34                     35                     36
                        a                      a                      a 
 Frequencies --  1288.5721              1308.8664              1352.0541
 Red. masses --    99.0000                99.0000                99.0000
 Frc consts  --    99.0000                99.0000                99.0000
 IR Inten    --    99.0000                99.0000                99.0000
 Raman Activ --     0.0000                 0.0000                 0.0000
 Depolar     --     0.0000                 0.0000                 0.0000
 Atom AN      X      Y      Z        X      Y      Z        X      Y      Z
   1   6     0.05  -0.08  -0.03    -0.02   0.11  -0.09    -0.00  -0.03   0.03
   2   6    -0.02  -0.03  -0.17     0.26  -0.05   0.17    -0.10  -0.00  -0.07
   3   6    -0.09   0.03   0.09     0.22  -0.11   0.15     0.03   0.03   0.01
   4   6     0.03   0.02   0.13    -0.06   0.11  -0.02     0.01   0.13   0.02
   5   6    -0.00   0.06  -0.06     0.06   0.01  -0.09     0.30  -0.26  -0.33
   6   6    -0.05  -0.03  -0.04    -0.03  -0.04   0.01    -0.07  -0.08   0.07
   7   1     0.03   0.05   0.00     0.03  -0.05   0.00    -0.00   0.02   0.00
   8   1     0.05   0.04   0.00    -0.14  -0.12  -0.00     0.04   0.03  -0.00
   9   1    -0.07  -0.03  -0.02     0.01   0.00   0.05     0.01   0.00  -0.02
  10   1     0.40  -0.02   0.26    -0.35  -0.02  -0.19     0.11   0.00   0.07
  11   1    -0.26   0.07  -0.18    -0.36  -0.01  -0.19     0.12   0.01   0.06
  12   1     0.43  -0.06   0.29    -0.21  -0.00  -0.12    -0.02  -0.01  -0.02
  13   1    -0.26   0.03  -0.21    -0.38  -0.05  -0.20    -0.05  -0.00  -0.01
  14   1     0.14   0.07  -0.02     0.21   0.09  -0.02    -0.19  -0.08   0.16
  15   1    -0.19  -0.04   0.13    -0.21  -0.13   0.02     0.05   0.01  -0.04
  16   1    -0.12   0.09   0.15    -0.09   0.07   0.12    -0.31   0.24   0.35
  17   1     0.15  -0.08  -0.17    -0.05   0.03   0.04    -0.28   0.21   0.33
  18   1     0.01   0.03   0.02    -0.01   0.06   0.02    -0.04   0.20   0.05
  19   1     0.03  -0.06  -0.02     0.01  -0.01  -0.02    -0.04   0.07  -0.04
  20   1     0.00   0.04   0.01     0.02   0.01  -0.00     0.04   0.07   0.04
                     37                     38                     39
                        a                      a                      a 
 Frequencies --  1363.3265              1374.3970              1415.0725
 Red. masses --    99.0000                99.0000                99.0000
 Frc consts  --    99.0000                99.0000                99.0000
 IR Inten    --    99.0000                99.0000                99.0000
 Raman Activ --     0.0000                 0.0000                 0.0000
 Depolar     --     0.0000                 0.0000                 0.0000
 Atom AN      X      Y      Z        X      Y      Z        X      Y      Z
   1   6    -0.01   0.01   0.01    -0.03   0.05  -0.05    -0.01   0.00  -0.00
   2   6    -0.02  -0.03  -0.02     0.34   0.03   0.17     0.01  -0.01   0.01
   3   6     0.10   0.02  -0.09    -0.39  -0.02  -0.22     0.01   0.02  -0.02
   4   6    -0.49  -0.15   0.18     0.04  -0.01   0.09    -0.04  -0.05  -0.01
   5   6     0.15   0.02  -0.03     0.06  -0.05  -0.07    -0.05   0.05   0.07
   6   6    -0.02   0.00   0.05    -0.02  -0.01   0.01     0.16  -0.37  -0.16
   7   1     0.01  -0.01   0.01     0.01  -0.05  -0.01     0.01  -0.00   0.01
   8   1     0.01  -0.01  -0.01    -0.07  -0.06  -0.00     0.00   0.00  -0.00
   9   1     0.01   0.01  -0.01    -0.03  -0.01   0.05     0.01   0.00   0.00
  10   1     0.02  -0.01   0.03    -0.29  -0.01  -0.14    -0.00   0.01  -0.03
  11   1     0.04  -0.00   0.02    -0.29  -0.03  -0.17    -0.01   0.02  -0.00
  12   1     0.15   0.08   0.07     0.36   0.05   0.23     0.01  -0.04  -0.00
  13   1    -0.14  -0.02  -0.06     0.34   0.03   0.17    -0.01  -0.01   0.03
  14   1     0.44   0.18  -0.14    -0.08  -0.03   0.02     0.07   0.02  -0.01
  15   1     0.46   0.18  -0.20     0.14   0.07  -0.01     0.02   0.04   0.01
  16   1     0.07   0.01  -0.11    -0.06   0.03   0.10     0.06  -0.01  -0.11
  17   1    -0.13   0.07   0.14    -0.04   0.01   0.04     0.08  -0.00  -0.05
  18   1     0.00   0.00   0.01    -0.01   0.02   0.01    -0.05   0.49   0.04
  19   1     0.03  -0.02  -0.03    -0.00   0.01  -0.02    -0.33   0.35   0.12
  20   1     0.04  -0.04  -0.04     0.02   0.03   0.01    -0.13   0.36   0.35
                     40                     41                     42
                        a                      a                      a 
 Frequencies --  1416.7196              2958.6263              2957.7356
 Red. masses --    99.0000                99.0000                99.0000
 Frc consts  --    99.0000                99.0000                99.0000
 IR Inten    --    99.0000                99.0000                99.0000
 Raman Activ --     0.0000                 0.0000                 0.0000
 Depolar     --     0.0000                 0.0000                 0.0000
 Atom AN      X      Y      Z        X      Y      Z        X      Y      Z
   1   6     0.38   0.20   0.07    -0.00   0.01  -0.00     0.00  -0.00  -0.00
   2   6    -0.06   0.00  -0.04     0.04  -0.07  -0.07    -0.00   0.02   0.00
   3   6     0.01   0.02  -0.01    -0.12   0.05   0.19    -0.03   0.04   0.05
   4   6    -0.00  -0.01   0.00    -0.03   0.01  -0.06     0.12  -0.24   0.07
   5   6     0.00  -0.01  -0.00     0.04   0.01   0.03    -0.04   0.00  -0.04
   6   6     0.00  -0.01  -0.00    -0.01  -0.00  -0.00     0.00   0.01  -0.00
   7   1    -0.38  -0.23  -0.25     0.00   0.00  -0.00    -0.00  -0.00   0.00
   8   1    -0.35  -0.36   0.07     0.01  -0.00   0.01     0.00  -0.00  -0.00
   9   1    -0.51  -0.07  -0.04     0.00  -0.03  -0.01    -0.00   0.00   0.00
  10   1     0.04  -0.02   0.08    -0.05   0.27   0.08     0.01  -0.05  -0.02
  11   1     0.06  -0.05   0.03    -0.10  -0.02   0.19    -0.01   0.00   0.02
  12   1     0.01   0.01   0.00     0.39   0.07  -0.65     0.07   0.02  -0.11
  13   1     0.01   0.01  -0.00     0.05  -0.26  -0.06     0.04  -0.18  -0.06
  14   1    -0.01  -0.01   0.01    -0.04   0.12   0.03    -0.15   0.57   0.22
  15   1     0.01   0.02   0.01     0.14  -0.15   0.21    -0.31   0.29  -0.48
  16   1    -0.00   0.01  -0.01    -0.12  -0.09  -0.05     0.07   0.06   0.02
  17   1     0.00   0.01   0.00    -0.04   0.05  -0.07     0.08  -0.09   0.14
  18   1    -0.00   0.01   0.00     0.00  -0.00  -0.00    -0.01  -0.00   0.01
  19   1    -0.01   0.01   0.00     0.02   0.01   0.01    -0.01  -0.01  -0.00
  20   1    -0.00   0.01   0.01     0.00  -0.00   0.00     0.00  -0.00   0.01
                     43                     44                     45
                        a                      a                      a 
 Frequencies --  2970.4802              2964.3730              2996.3434
 Red. masses --    99.0000                99.0000                99.0000
 Frc consts  --    99.0000                99.0000                99.0000
 IR Inten    --    99.0000                99.0000                99.0000
 Raman Activ --     0.0000                 0.0000                 0.0000
 Depolar     --     0.0000                 0.0000                 0.0000
 Atom AN      X      Y      Z        X      Y      Z        X      Y      Z
   1   6    -0.01   0.02   0.02    -0.00   0.01   0.00    -0.00   0.02  -0.03
   2   6     0.07  -0.19  -0.12     0.02  -0.06  -0.03    -0.05  -0.06   0.09
   3   6     0.04   0.02  -0.07    -0.03   0.01   0.05    -0.00  -0.09   0.01
   4   6     0.03  -0.01   0.06    -0.02   0.07   0.05     0.02  -0.05   0.02
   5   6     0.06   0.02   0.04    -0.20  -0.07  -0.12     0.04  -0.11   0.11
   6   6    -0.01   0.00  -0.00     0.02   0.00   0.01     0.00   0.02  -0.03
   7   1     0.03   0.01  -0.05     0.00   0.00  -0.01    -0.05  -0.00   0.08
   8   1     0.01  -0.00   0.01     0.00  -0.00   0.01     0.04  -0.03   0.05
   9   1     0.01  -0.08  -0.02     0.00  -0.02  -0.01     0.01  -0.04  -0.02
  10   1    -0.14   0.72   0.23    -0.04   0.22   0.07    -0.05   0.21   0.08
  11   1    -0.11  -0.03   0.20    -0.03  -0.01   0.05     0.23   0.00  -0.42
  12   1    -0.17  -0.02   0.28     0.09   0.02  -0.15     0.10   0.00  -0.16
  13   1     0.03  -0.07  -0.04     0.01  -0.06  -0.01    -0.09   0.31   0.12
  14   1     0.04  -0.11  -0.03     0.09  -0.34  -0.11    -0.02   0.09   0.04
  15   1    -0.13   0.14  -0.20    -0.07   0.08  -0.09    -0.07   0.06  -0.10
  16   1    -0.20  -0.14  -0.08     0.61   0.43   0.24     0.16   0.09   0.08
  17   1    -0.03   0.04  -0.06     0.10  -0.15   0.18    -0.30   0.30  -0.47
  18   1     0.00   0.00  -0.01    -0.02  -0.00   0.02    -0.05  -0.01   0.04
  19   1     0.02   0.01   0.01    -0.05  -0.04  -0.03    -0.02  -0.01  -0.02
  20   1     0.01  -0.01   0.02    -0.01   0.02  -0.03     0.06  -0.07   0.10
                     46                     47                     48
                        a                      a                      a 
 Frequencies --  3028.2707              2988.6686              2992.0342
 Red. masses --    99.0000                99.0000                99.0000
 Frc consts  --    99.0000                99.0000                99.0000
 IR Inten    --    99.0000                99.0000                99.0000
 Raman Activ --     0.0000                 0.0000                 0.0000
 Depolar     --     0.0000                 0.0000                 0.0000
 Atom AN      X      Y      Z        X      Y      Z        X      Y      Z
   1   6     0.12  -0.18  -0.19    -0.00  -0.00   0.03    -0.01   0.02   0.01
   2   6     0.02  -0.03  -0.04     0.08   0.06  -0.15     0.03  -0.03  -0.06
   3   6     0.01  -0.01  -0.01     0.02  -0.02  -0.04     0.03  -0.20  -0.03
   4   6     0.00  -0.00  -0.00     0.01  -0.03  -0.00     0.01  -0.03  -0.02
   5   6     0.00  -0.00   0.00     0.01  -0.10   0.08    -0.02   0.06  -0.06
   6   6     0.02  -0.00   0.01     0.01   0.01  -0.02     0.01   0.00   0.02
   7   1    -0.29  -0.04   0.52     0.06   0.00  -0.09     0.01   0.00  -0.02
   8   1    -0.02   0.00  -0.07    -0.03   0.03  -0.03     0.01  -0.01   0.02
   9   1    -0.12   0.68   0.20     0.00  -0.01   0.00     0.02  -0.08  -0.03
  10   1    -0.02   0.09   0.03     0.06  -0.21  -0.09    -0.02   0.11   0.03
  11   1    -0.05  -0.00   0.10    -0.35  -0.01   0.63    -0.10  -0.01   0.19
  12   1    -0.01  -0.00   0.02    -0.05  -0.01   0.08     0.10  -0.01  -0.17
  13   1    -0.01   0.05   0.02    -0.02   0.09   0.03    -0.20   0.74   0.27
  14   1    -0.00   0.01   0.01    -0.02   0.08   0.03    -0.03   0.11   0.04
  15   1    -0.00   0.00  -0.00    -0.01   0.01  -0.02     0.01  -0.01   0.00
  16   1    -0.00   0.00   0.00     0.20   0.12   0.09    -0.09  -0.05  -0.04
  17   1     0.00  -0.00   0.00    -0.24   0.24  -0.37     0.17  -0.18   0.27
  18   1    -0.00  -0.00   0.01    -0.04  -0.01   0.03     0.01   0.00  -0.01
  19   1    -0.03  -0.02  -0.01    -0.02  -0.01  -0.01    -0.04  -0.03  -0.02
  20   1    -0.02   0.03  -0.04     0.03  -0.03   0.05    -0.02   0.03  -0.03
                     49                     50                     51
                        a                      a                      a 
 Frequencies --  3030.1032              2977.6793              3031.4941
 Red. masses --    99.0000                99.0000                99.0000
 Frc consts  --    99.0000                99.0000                99.0000
 IR Inten    --    99.0000                99.0000                99.0000
 Raman Activ --     0.0000                 0.0000                 0.0000
 Depolar     --     0.0000                 0.0000                 0.0000
 Atom AN      X      Y      Z        X      Y      Z        X      Y      Z
   1   6     0.03  -0.11   0.11    -0.01   0.01   0.01     0.03  -0.15   0.18
   2   6    -0.00  -0.01   0.01     0.01  -0.06  -0.01    -0.01  -0.02   0.03
   3   6    -0.00  -0.00   0.00     0.04   0.01  -0.07    -0.00  -0.02   0.01
   4   6    -0.00   0.01  -0.00    -0.03  -0.07  -0.16     0.01  -0.01   0.01
   5   6    -0.01   0.02  -0.03    -0.08  -0.04  -0.05     0.01  -0.02   0.02
   6   6     0.01   0.11  -0.20     0.01   0.00   0.01     0.01  -0.08   0.14
   7   1     0.16  -0.01  -0.26     0.01   0.00  -0.02     0.25  -0.01  -0.41
   8   1    -0.21   0.16  -0.24     0.00  -0.00   0.01    -0.29   0.23  -0.34
   9   1    -0.05   0.25   0.10     0.00  -0.02  -0.01    -0.06   0.30   0.13
  10   1    -0.01   0.03   0.01    -0.05   0.25   0.08    -0.02   0.06   0.02
  11   1     0.02  -0.00  -0.04     0.03  -0.01  -0.06     0.05  -0.00  -0.10
  12   1     0.01   0.00  -0.02    -0.17  -0.02   0.28     0.03   0.00  -0.05
  13   1    -0.01   0.02   0.01     0.02  -0.04  -0.03    -0.02   0.06   0.02
  14   1     0.00  -0.01  -0.00    -0.15   0.53   0.17    -0.00   0.02   0.01
  15   1     0.01  -0.01   0.02     0.27  -0.29   0.40    -0.02   0.02  -0.03
  16   1    -0.02  -0.01  -0.01     0.25   0.17   0.10     0.02   0.01   0.01
  17   1     0.06  -0.06   0.09     0.03  -0.05   0.06    -0.05   0.05  -0.08
  18   1    -0.29  -0.06   0.27    -0.00  -0.00   0.01     0.19   0.04  -0.16
  19   1    -0.02   0.00  -0.04    -0.03  -0.02  -0.02    -0.01  -0.02   0.02
  20   1     0.28  -0.35   0.49    -0.01   0.02  -0.02    -0.20   0.25  -0.35
                     52                     53                     54
                        a                      a                      a 
 Frequencies --  3033.4432              3046.2861              3036.7937
 Red. masses --    99.0000                99.0000                99.0000
 Frc consts  --    99.0000                99.0000                99.0000
 IR Inten    --    99.0000                99.0000                99.0000
 Raman Activ --     0.0000                 0.0000                 0.0000
 Depolar     --     0.0000                 0.0000                 0.0000
 Atom AN      X      Y      Z        X      Y      Z        X      Y      Z
   1   6    -0.00  -0.02  -0.01    -0.00   0.01   0.00     0.14   0.02   0.06
   2   6     0.00  -0.00  -0.00    -0.00   0.00   0.00     0.01   0.00   0.00
   3   6     0.00  -0.01  -0.00    -0.00   0.01   0.00     0.00   0.00  -0.00
   4   6    -0.00  -0.00  -0.00    -0.00   0.00   0.00    -0.00  -0.00  -0.00
   5   6    -0.03  -0.01  -0.01     0.02   0.01   0.01    -0.00  -0.00  -0.00
   6   6    -0.25  -0.01   0.02     0.11   0.13   0.12    -0.02  -0.00   0.00
   7   1     0.01  -0.00  -0.02     0.00   0.00  -0.00    -0.22  -0.01   0.42
   8   1     0.02  -0.02   0.02    -0.00   0.00   0.00    -0.40   0.35  -0.51
   9   1    -0.02   0.08   0.02     0.00  -0.02  -0.01     0.10  -0.42  -0.13
  10   1    -0.00   0.01   0.00     0.00  -0.01  -0.00     0.00  -0.00  -0.00
  11   1    -0.01  -0.00   0.01     0.00   0.00  -0.01    -0.00   0.00   0.01
  12   1     0.00  -0.00  -0.01    -0.00   0.00   0.00    -0.00  -0.00   0.01
  13   1    -0.01   0.03   0.01     0.01  -0.05  -0.02     0.00  -0.01  -0.00
  14   1    -0.00   0.01   0.00     0.00  -0.02  -0.01    -0.00   0.00   0.00
  15   1     0.00  -0.00   0.01    -0.00   0.00  -0.00     0.00  -0.00   0.00
  16   1     0.06   0.04   0.02    -0.05  -0.03  -0.02     0.01   0.00   0.00
  17   1     0.01  -0.01   0.02    -0.01   0.01  -0.01     0.00  -0.00   0.00
  18   1     0.53   0.14  -0.57     0.22   0.07  -0.18     0.04   0.01  -0.04
  19   1     0.20   0.16   0.13    -0.69  -0.47  -0.36     0.02   0.02   0.01
  20   1     0.16  -0.26   0.36     0.08  -0.06   0.13     0.01  -0.02   0.02
