      -----------------------------------------------------------      
     |                   =====================                   |     
     |                           x T B                           |     
     |                   =====================                   |     
     |                         S. Grimme                         |     
     |          Mulliken Center for Theoretical Chemistry        |     
     |                    University of Bonn                     |     
      -----------------------------------------------------------      

   * xtb version 6.6.1 (8d0f1dd) compiled by 'stahn@M-Bot' on 2023-08-01

   xtb is free software: you can redistribute it and/or modify it under
   the terms of the GNU Lesser General Public License as published by
   the Free Software Foundation, either version 3 of the License, or
   (at your option) any later version.
   
   xtb is distributed in the hope that it will be useful,
   but WITHOUT ANY WARRANTY; without even the implied warranty of
   MERCHANTABILITY or FITNESS FOR A PARTICULAR PURPOSE.  See the
   GNU Lesser General Public License for more details.
   
   Cite this work as:
   * C. Bannwarth, E. Caldeweyher, S. Ehlert, A. Hansen, P. Pracht,
     J. Seibert, S. Spicher, S. Grimme, WIREs Comput. Mol. Sci., 2020, 11,
     e01493. DOI: 10.1002/wcms.1493
   
   for GFN2-xTB:
   * C. Bannwarth, S. Ehlert and S. Grimme., J. Chem. Theory Comput., 2019,
     15, 1652-1671. DOI: 10.1021/acs.jctc.8b01176
   for GFN1-xTB:
   * S. Grimme, C. Bannwarth, P. Shushkov, J. Chem. Theory Comput., 2017,
     13, 1989-2009. DOI: 10.1021/acs.jctc.7b00118
   for GFN0-xTB:
   * P. Pracht, E. Caldeweyher, S. Ehlert, S. Grimme, ChemRxiv, 2019, preprint.
     DOI: 10.26434/chemrxiv.8326202.v1
   for GFN-FF:
   * S. Spicher and S. Grimme, Angew. Chem. Int. Ed., 2020, 59, 15665-15673.
     DOI: 10.1002/anie.202004239
   
   for ALPB and GBSA implicit solvation:
   * S. Ehlert, M. Stahn, S. Spicher, S. Grimme, J. Chem. Theory Comput.,
     2021, 17, 4250-4261. DOI: 10.1021/acs.jctc.1c00471
   
   for DFT-D4:
   * E. Caldeweyher, C. Bannwarth and S. Grimme, J. Chem. Phys., 2017,
     147, 034112. DOI: 10.1063/1.4993215
   * E. Caldeweyher, S. Ehlert, A. Hansen, H. Neugebauer, S. Spicher,
     C. Bannwarth and S. Grimme, J. Chem. Phys., 2019, 150, 154122.
     DOI: 10.1063/1.5090222
   * E. Caldeweyher, J.-M. Mewes, S. Ehlert and S. Grimme, Phys. Chem. Chem. Phys.
     2020, 22, 8499-8512. DOI: 10.1039/D0CP00502A
   
   for sTDA-xTB:
   * S. Grimme and C. Bannwarth, J. Chem. Phys., 2016, 145, 054103.
     DOI: 10.1063/1.4959605
   
   in the mass-spec context:
   * V. Asgeirsson, C. Bauer and S. Grimme, Chem. Sci., 2017, 8, 4879.
     DOI: 10.1039/c7sc00601b
   * J. Koopman and S. Grimme, ACS Omega 2019, 4, 12, 15120-15133.
     DOI: 10.1021/acsomega.9b02011
   
   for metadynamics refer to:
   * S. Grimme, J. Chem. Theory Comput., 2019, 155, 2847-2862
     DOI: 10.1021/acs.jctc.9b00143
   
   for SPH calculations refer to:
   * S. Spicher and S. Grimme, J. Chem. Theory Comput., 2021, 17, 1701-1714
     DOI: 10.1021/acs.jctc.0c01306
   
   with help from (in alphabetical order)
   P. Atkinson, C. Bannwarth, F. Bohle, G. Brandenburg, E. Caldeweyher
   M. Checinski, S. Dohm, S. Ehlert, S. Ehrlich, I. Gerasimov, C. Hölzer
   A. Katbashev, J. Koopman, C. Lavigne, S. Lehtola, F. März, M. Müller,
   F. Musil, H. Neugebauer, J. Pisarek, C. Plett, P. Pracht, F. Pultar,
   J. Seibert, P. Shushkov, S. Spicher, M. Stahn, M. Steiner, T. Strunk,
   J. Stückrath, T. Rose, and J. Unsleber
   
 * started run on 2024/04/20 at 10:55:58.332     

           -------------------------------------------------
          |                Calculation Setup                |
           -------------------------------------------------

          program call               : xtb folded.xyz --gfn 2 --ohess -P 4
          coordinate file            : folded.xyz
          omp threads                :                     4

   ID    Z sym.   atoms
    1    6 C      1-6
    2    1 H      7-20

           -------------------------------------------------
          |                 G F N 2 - x T B                 |
           -------------------------------------------------

        Reference                      10.1021/acs.jctc.8b01176
      * Hamiltonian:
        H0-scaling (s, p, d)           1.850000    2.230000    2.230000
        zeta-weighting                 0.500000
      * Dispersion:
        s8                             2.700000
        a1                             0.520000
        a2                             5.000000
        s9                             5.000000
      * Repulsion:
        kExp                           1.500000    1.000000
        rExp                           1.000000
      * Coulomb:
        alpha                          2.000000
        third order                    shell-resolved
        anisotropic                    true
        a3                             3.000000
        a5                             4.000000
        cn-shift                       1.200000
        cn-exp                         4.000000
        max-rad                        5.000000


          ...................................................
          :                      SETUP                      :
          :.................................................:
          :  # basis functions                  38          :
          :  # atomic orbitals                  38          :
          :  # shells                           26          :
          :  # electrons                        38          :
          :  max. iterations                   250          :
          :  Hamiltonian                  GFN2-xTB          :
          :  restarted?                      false          :
          :  GBSA solvation                  false          :
          :  PC potential                    false          :
          :  electronic temp.          300.0000000     K    :
          :  accuracy                    1.0000000          :
          :  -> integral cutoff          0.2500000E+02      :
          :  -> integral neglect         0.1000000E-07      :
          :  -> SCF convergence          0.1000000E-05 Eh   :
          :  -> wf. convergence          0.1000000E-03 e    :
          :  Broyden damping             0.4000000          :
          ...................................................

 iter      E             dE          RMSdq      gap      omega  full diag
   1    -20.2289200 -0.202289E+02  0.245E+00   13.50       0.0  T
   2    -20.2845867 -0.556667E-01  0.125E+00   13.22       1.0  T
   3    -20.2851602 -0.573487E-03  0.678E-01   13.20       1.0  T
   4    -20.2853233 -0.163121E-03  0.889E-02   13.20       1.0  T
   5    -20.2853334 -0.101372E-04  0.490E-02   13.20       1.0  T
   6    -20.2853342 -0.806021E-06  0.358E-03   13.20       6.3  T
   7    -20.2853343 -0.702936E-07  0.148E-03   13.20      15.1  T
   8    -20.2853343 -0.445570E-08  0.248E-04   13.20      90.1  T
   9    -20.2853343 -0.349587E-10  0.108E-04   13.20     207.3  T

   *** convergence criteria satisfied after 9 iterations ***

         #    Occupation            Energy/Eh            Energy/eV
      -------------------------------------------------------------
         1        2.0000           -0.6201276             -16.8745
       ...           ...                  ...                  ...
        13        2.0000           -0.4569651             -12.4347
        14        2.0000           -0.4462727             -12.1437
        15        2.0000           -0.4383242             -11.9274
        16        2.0000           -0.4320071             -11.7555
        17        2.0000           -0.4213034             -11.4642
        18        2.0000           -0.4174948             -11.3606
        19        2.0000           -0.4113606             -11.1937 (HOMO)
        20                          0.0737546               2.0070 (LUMO)
        21                          0.0873421               2.3767
        22                          0.1094588               2.9785
        23                          0.1224429               3.3318
        24                          0.1232787               3.3546
       ...                                ...                  ...
        38                          0.3004345               8.1752
      -------------------------------------------------------------
                  HL-Gap            0.4851152 Eh           13.2007 eV
             Fermi-level           -0.1688030 Eh           -4.5934 eV

 SCC (total)                   0 d,  0 h,  0 min,  0.009 sec
 SCC setup                      ...        0 min,  0.000 sec (  2.921%)
 Dispersion                     ...        0 min,  0.000 sec (  3.091%)
 classical contributions        ...        0 min,  0.000 sec (  0.178%)
 integral evaluation            ...        0 min,  0.001 sec (  6.294%)
 iterations                     ...        0 min,  0.006 sec ( 69.270%)
 molecular gradient             ...        0 min,  0.001 sec ( 15.978%)
 printout                       ...        0 min,  0.000 sec (  1.921%)

         :::::::::::::::::::::::::::::::::::::::::::::::::::::
         ::                     SUMMARY                     ::
         :::::::::::::::::::::::::::::::::::::::::::::::::::::
         :: total energy             -19.990672401009 Eh    ::
         :: gradient norm              0.023435885952 Eh/a0 ::
         :: HOMO-LUMO gap             13.200657678889 eV    ::
         ::.................................................::
         :: SCC energy               -20.285334312460 Eh    ::
         :: -> isotropic ES            0.003645847272 Eh    ::
         :: -> anisotropic ES          0.007184825142 Eh    ::
         :: -> anisotropic XC          0.012533437129 Eh    ::
         :: -> dispersion             -0.011191782913 Eh    ::
         :: repulsion energy           0.294621134028 Eh    ::
         :: add. restraining           0.000000000000 Eh    ::
         :: total charge               0.000000000000 e     ::
         :::::::::::::::::::::::::::::::::::::::::::::::::::::

      ----------------------------------------------------------- 
     |                   =====================                   |
     |                        A N C O P T                        |
     |                   =====================                   |
     |               Approximate Normal Coordinate               |
     |                Rational Function Optimizer                |
      ----------------------------------------------------------- 

          ...................................................
          :                      SETUP                      :
          :.................................................:
          :   optimization level            normal          :
          :   max. optcycles                   200          :
          :   ANC micro-cycles                  20          :
          :   degrees of freedom                54          :
          :.................................................:
          :   RF solver                   davidson          :
          :   write xtbopt.log                true          :
          :   linear?                        false          :
          :   energy convergence         0.5000000E-05 Eh   :
          :   grad. convergence          0.1000000E-02 Eh/α :
          :   maxmium RF displ.          2.0000000          :
          :   Hlow (freq-cutoff)         0.2000000E-01      :
          :   Hmax (freq-cutoff)         5.0000000          :
          :   S6 in model hess.         70.0000000          :
          ...................................................

generating ANC from model Hessian ...
Using Lindh-Hessian (1995)
 Shifting diagonal of input Hessian by   1.728028269479269E-002
 Lowest  eigenvalues of input Hessian
    0.000000    0.000000    0.000000    0.000000    0.000000    0.000000
    0.020000    0.021706    0.024460    0.028269    0.029797    0.031386
    0.034116    0.036429    0.046231    0.061026    0.062952    0.067451
 Highest eigenvalues
    1.160567    1.181962    1.217539    1.233476    1.276024    1.304361
 

........................................................................
.............................. CYCLE    1 ..............................
........................................................................

 iter      E             dE          RMSdq      gap      omega  full diag
   1    -20.2853343 -0.202853E+02  0.154E-05   13.20       0.0  T
   2    -20.2853343 -0.639488E-12  0.843E-06   13.20    2653.0  T
   3    -20.2853343 -0.603961E-13  0.334E-06   13.20    6687.5  T
     SCC iter.                  ...        0 min,  0.002 sec
     gradient                   ...        0 min,  0.001 sec
 * total energy  :   -19.9906724 Eh     change       -0.8082424E-11 Eh
   gradient norm :     0.0234358 Eh/α   predicted     0.0000000E+00 (-100.00%)
   displ. norm   :     0.1359504 α      lambda       -0.1757496E-02
   maximum displ.:     0.0679258 α      in ANC's #14, #23, #22, ...

........................................................................
.............................. CYCLE    2 ..............................
........................................................................

 iter      E             dE          RMSdq      gap      omega  full diag
   1    -20.2921933 -0.202922E+02  0.139E-01   13.41       0.0  T
   2    -20.2921964 -0.315578E-05  0.799E-02   13.41       1.0  T
   3    -20.2921968 -0.369148E-06  0.431E-03   13.41       5.2  T
   4    -20.2921968 -0.219033E-07  0.117E-03   13.41      19.1  T
   5    -20.2921968 -0.100485E-08  0.600E-04   13.41      37.3  T
   6    -20.2921968 -0.271307E-09  0.634E-05   13.41     352.6  T
     SCC iter.                  ...        0 min,  0.003 sec
     gradient                   ...        0 min,  0.001 sec
 * total energy  :   -19.9918037 Eh     change       -0.1131331E-02 Eh
   gradient norm :     0.0103031 Eh/α   predicted    -0.8949902E-03 ( -20.89%)
   displ. norm   :     0.0632602 α      lambda       -0.2762945E-03
   maximum displ.:     0.0245648 α      in ANC's #3, #14, #23, ...

........................................................................
.............................. CYCLE    3 ..............................
........................................................................

 iter      E             dE          RMSdq      gap      omega  full diag
   1    -20.2959938 -0.202960E+02  0.558E-02   13.46       0.0  T
   2    -20.2959955 -0.166241E-05  0.315E-02   13.46       1.0  T
   3    -20.2959955 -0.545351E-07  0.406E-03   13.46       5.5  T
   4    -20.2959956 -0.145778E-07  0.591E-04   13.46      37.8  T
   5    -20.2959956 -0.108954E-08  0.331E-04   13.46      67.6  T
     SCC iter.                  ...        0 min,  0.003 sec
     gradient                   ...        0 min,  0.001 sec
 * total energy  :   -19.9919568 Eh     change       -0.1530935E-03 Eh
   gradient norm :     0.0021262 Eh/α   predicted    -0.1387140E-03 (  -9.39%)
   displ. norm   :     0.0270492 α      lambda       -0.1888025E-04
   maximum displ.:     0.0184130 α      in ANC's #3, #1, #4, ...

........................................................................
.............................. CYCLE    4 ..............................
........................................................................

 iter      E             dE          RMSdq      gap      omega  full diag
   1    -20.2964128 -0.202964E+02  0.698E-03   13.45       0.0  T
   2    -20.2964129 -0.643355E-07  0.406E-03   13.45       5.5  T
   3    -20.2964129 -0.129514E-08  0.918E-04   13.45      24.4  T
   4    -20.2964129 -0.443531E-09  0.137E-04   13.45     163.0  T
     SCC iter.                  ...        0 min,  0.002 sec
     gradient                   ...        0 min,  0.001 sec
 * total energy  :   -19.9919726 Eh     change       -0.1580324E-04 Eh
   gradient norm :     0.0006327 Eh/α   predicted    -0.1011301E-04 ( -36.01%)
   displ. norm   :     0.0921115 α      lambda       -0.2819065E-04
   maximum displ.:     0.0643114 α      in ANC's #3, #1, #5, ...

........................................................................
.............................. CYCLE    5 ..............................
........................................................................

 iter      E             dE          RMSdq      gap      omega  full diag
   1    -20.2965065 -0.202965E+02  0.179E-02   13.42       0.0  T
   2    -20.2965066 -0.117799E-06  0.107E-02   13.42       2.1  T
   3    -20.2965066 -0.119470E-07  0.102E-03   13.42      21.9  T
   4    -20.2965066 -0.270218E-08  0.375E-04   13.42      59.7  T
   5    -20.2965066 -0.390862E-09  0.116E-04   13.42     192.7  T
     SCC iter.                  ...        0 min,  0.003 sec
     gradient                   ...        0 min,  0.001 sec
 * total energy  :   -19.9919941 Eh     change       -0.2149757E-04 Eh
   gradient norm :     0.0029584 Eh/α   predicted    -0.1414882E-04 ( -34.18%)
   displ. norm   :     0.0232289 α      lambda       -0.9407300E-05
   maximum displ.:     0.0158722 α      in ANC's #3, #1, #5, ...

........................................................................
.............................. CYCLE    6 ..............................
........................................................................

 iter      E             dE          RMSdq      gap      omega  full diag
   1    -20.2962852 -0.202963E+02  0.525E-03   13.43       0.0  T
   2    -20.2962852 -0.227597E-07  0.309E-03   13.43       7.2  T
   3    -20.2962852 -0.426347E-09  0.523E-04   13.43      42.8  T
   4    -20.2962852 -0.395776E-09  0.977E-05   13.43     228.8  T
     SCC iter.                  ...        0 min,  0.002 sec
     gradient                   ...        0 min,  0.002 sec
 * total energy  :   -19.9920023 Eh     change       -0.8174312E-05 Eh
   gradient norm :     0.0019712 Eh/α   predicted    -0.4719967E-05 ( -42.26%)
   displ. norm   :     0.1170267 α      lambda       -0.2325868E-04
   maximum displ.:     0.0762811 α      in ANC's #3, #1, #2, ...

........................................................................
.............................. CYCLE    7 ..............................
........................................................................

 iter      E             dE          RMSdq      gap      omega  full diag
   1    -20.2954503 -0.202955E+02  0.254E-02   13.45       0.0  T
   2    -20.2954507 -0.356142E-06  0.151E-02   13.45       1.5  T
   3    -20.2954507 -0.693070E-08  0.183E-03   13.44      12.2  T
   4    -20.2954507 -0.623509E-08  0.398E-04   13.45      56.1  T
   5    -20.2954507 -0.568797E-09  0.195E-04   13.45     114.4  T
     SCC iter.                  ...        0 min,  0.003 sec
     gradient                   ...        0 min,  0.003 sec
 * total energy  :   -19.9920149 Eh     change       -0.1259456E-04 Eh
   gradient norm :     0.0022002 Eh/α   predicted    -0.1170412E-04 (  -7.07%)
   displ. norm   :     0.0103672 α      lambda       -0.5116296E-05
   maximum displ.:     0.0066525 α      in ANC's #4, #3, #6, ...

........................................................................
.............................. CYCLE    8 ..............................
........................................................................

 iter      E             dE          RMSdq      gap      omega  full diag
   1    -20.2957533 -0.202958E+02  0.301E-03   13.44       0.0  T
   2    -20.2957533 -0.202191E-07  0.169E-03   13.44      13.3  T
   3    -20.2957533 -0.391072E-09  0.528E-04   13.44      42.4  T
   4    -20.2957533 -0.636291E-10  0.706E-05   13.44     316.9  T
     SCC iter.                  ...        0 min,  0.002 sec
     gradient                   ...        0 min,  0.002 sec
 * total energy  :   -19.9920193 Eh     change       -0.4363532E-05 Eh
   gradient norm :     0.0013921 Eh/α   predicted    -0.2590310E-05 ( -40.64%)
   displ. norm   :     0.0519711 α      lambda       -0.1208865E-04
   maximum displ.:     0.0408300 α      in ANC's #4, #1, #6, ...

........................................................................
.............................. CYCLE    9 ..............................
........................................................................

 iter      E             dE          RMSdq      gap      omega  full diag
   1    -20.2965139 -0.202965E+02  0.141E-02   13.44       0.0  T
   2    -20.2965141 -0.178130E-06  0.821E-03   13.44       2.7  T
   3    -20.2965141 -0.394065E-08  0.139E-03   13.44      16.1  T
   4    -20.2965141 -0.164481E-08  0.241E-04   13.44      92.6  T
   5    -20.2965141 -0.213337E-09  0.110E-04   13.44     202.8  T
     SCC iter.                  ...        0 min,  0.003 sec
     gradient                   ...        0 min,  0.003 sec
 * total energy  :   -19.9920273 Eh     change       -0.8081116E-05 Eh
   gradient norm :     0.0012969 Eh/α   predicted    -0.6052099E-05 ( -25.11%)
   displ. norm   :     0.0362329 α      lambda       -0.2945269E-05
   maximum displ.:     0.0212865 α      in ANC's #1, #3, #2, ...

........................................................................
.............................. CYCLE   10 ..............................
........................................................................

 iter      E             dE          RMSdq      gap      omega  full diag
   1    -20.2962329 -0.202962E+02  0.803E-03   13.44       0.0  T
   2    -20.2962329 -0.184915E-07  0.477E-03   13.44       4.7  T
   3    -20.2962329 -0.797790E-09  0.351E-04   13.44      63.7  T
   4    -20.2962329 -0.166779E-09  0.103E-04   13.44     217.4  T
     SCC iter.                  ...        0 min,  0.002 sec
     gradient                   ...        0 min,  0.002 sec
 * total energy  :   -19.9920306 Eh     change       -0.3271959E-05 Eh
   gradient norm :     0.0005217 Eh/α   predicted    -0.1473766E-05 ( -54.96%)
   displ. norm   :     0.0423574 α      lambda       -0.1640432E-05
   maximum displ.:     0.0260631 α      in ANC's #1, #2, #3, ...

   *** GEOMETRY OPTIMIZATION CONVERGED AFTER 10 ITERATIONS ***

------------------------------------------------------------------------
 total energy gain   :        -0.0013582 Eh       -0.8523 kcal/mol
 total RMSD          :         0.0890343 a0        0.0471 Å
 total power (kW/mol):        -0.3565981 (step)  -34.3673 (real)
------------------------------------------------------------------------

 ANCopt (total)                0 d,  0 h,  0 min,  0.104 sec
 optimizer setup                ...        0 min,  0.000 sec (  0.280%)
 model hessian                  ...        0 min,  0.008 sec (  8.099%)
 ANC generation                 ...        0 min,  0.001 sec (  0.598%)
 coordinate transformation      ...        0 min,  0.000 sec (  0.110%)
 single point calculation       ...        0 min,  0.053 sec ( 51.145%)
 optimization log               ...        0 min,  0.039 sec ( 37.323%)
 hessian update                 ...        0 min,  0.001 sec (  0.911%)
 rational function              ...        0 min,  0.001 sec (  0.708%)

================
 final structure:
================
20
 xtb: 6.6.1 (8d0f1dd)
C            2.73378789177532        0.36803548324106        0.50932120830034
C            1.41588968869233       -0.37514338323554        0.32416842933897
C            0.52907573452568        0.30866933993537       -0.71403875249248
C           -0.75602767276888       -0.46046993064264       -1.02485130163144
C           -1.71659508514124       -0.61849894985528        0.15542902916155
C           -2.23485678096528        0.71094111966593        0.69192609523058
H            3.28616310026487        0.40697974370531       -0.42726505231075
H            3.35357935276765       -0.12802876758817        1.25280718416406
H            2.55203375833750        1.38859576816660        0.84011357998237
H            1.61851465829673       -1.40050893671446        0.00601359864008
H            0.89694726848916       -0.41971201629107        1.28285830651738
H            1.09634188967058        0.41107451230724       -1.64295453051606
H            0.28344032095838        1.31563417418979       -0.37288194357621
H           -0.48906723765979       -1.45560091370424       -1.38987238561008
H           -1.28061037766040        0.05614581639163       -1.83275022081649
H           -2.56641743828348       -1.21904421499435       -0.17850382584609
H           -1.22646415259825       -1.16953699395471        0.95952967395971
H           -2.99125305387345        0.54057656558632        1.45491129729124
H           -1.43220728946962        1.29242864870583        1.13755853321376
H           -2.68152457535782        1.29632893508538       -0.10908992300044
           -------------------------------------------------
          |                Final Singlepoint                |
           -------------------------------------------------

          ...................................................
          :                      SETUP                      :
          :.................................................:
          :  # basis functions                  38          :
          :  # atomic orbitals                  38          :
          :  # shells                           26          :
          :  # electrons                        38          :
          :  max. iterations                   250          :
          :  Hamiltonian                  GFN2-xTB          :
          :  restarted?                      false          :
          :  GBSA solvation                  false          :
          :  PC potential                    false          :
          :  electronic temp.          300.0000000     K    :
          :  accuracy                    1.0000000          :
          :  -> integral cutoff          0.2500000E+02      :
          :  -> integral neglect         0.1000000E-07      :
          :  -> SCF convergence          0.1000000E-05 Eh   :
          :  -> wf. convergence          0.1000000E-03 e    :
          :  Broyden damping             0.4000000          :
          ...................................................

 iter      E             dE          RMSdq      gap      omega  full diag
   1    -20.2962329 -0.202962E+02  0.500E-05   13.44       0.0  T
   2    -20.2962329 -0.237321E-11  0.286E-05   13.44     782.7  T
   3    -20.2962329  0.284217E-13  0.754E-06   13.44    2966.6  T

   *** convergence criteria satisfied after 3 iterations ***

         #    Occupation            Energy/Eh            Energy/eV
      -------------------------------------------------------------
         1        2.0000           -0.6209213             -16.8961
       ...           ...                  ...                  ...
        13        2.0000           -0.4578093             -12.4576
        14        2.0000           -0.4453897             -12.1197
        15        2.0000           -0.4383326             -11.9276
        16        2.0000           -0.4318587             -11.7515
        17        2.0000           -0.4198130             -11.4237
        18        2.0000           -0.4180907             -11.3768
        19        2.0000           -0.4129137             -11.2360 (HOMO)
        20                          0.0811725               2.2088 (LUMO)
        21                          0.0965681               2.6278
        22                          0.1169543               3.1825
        23                          0.1281890               3.4882
        24                          0.1314706               3.5775
       ...                                ...                  ...
        38                          0.3147943               8.5660
      -------------------------------------------------------------
                  HL-Gap            0.4940862 Eh           13.4448 eV
             Fermi-level           -0.1658706 Eh           -4.5136 eV

 SCC (total)                   0 d,  0 h,  0 min,  0.005 sec
 SCC setup                      ...        0 min,  0.000 sec (  1.356%)
 Dispersion                     ...        0 min,  0.001 sec ( 25.449%)
 classical contributions        ...        0 min,  0.000 sec (  0.396%)
 integral evaluation            ...        0 min,  0.000 sec (  9.412%)
 iterations                     ...        0 min,  0.001 sec ( 31.819%)
 molecular gradient             ...        0 min,  0.001 sec ( 29.257%)
 printout                       ...        0 min,  0.000 sec (  1.795%)

         :::::::::::::::::::::::::::::::::::::::::::::::::::::
         ::                     SUMMARY                     ::
         :::::::::::::::::::::::::::::::::::::::::::::::::::::
         :: total energy             -19.992030611581 Eh    ::
         :: gradient norm              0.000521769291 Eh/a0 ::
         :: HOMO-LUMO gap             13.444769202045 eV    ::
         ::.................................................::
         :: SCC energy               -20.296232937801 Eh    ::
         :: -> isotropic ES            0.003895650968 Eh    ::
         :: -> anisotropic ES          0.006828447459 Eh    ::
         :: -> anisotropic XC          0.012602726672 Eh    ::
         :: -> dispersion             -0.011179480158 Eh    ::
         :: repulsion energy           0.304163320993 Eh    ::
         :: add. restraining           0.000000000000 Eh    ::
         :: total charge              -0.000000000000 e     ::
         :::::::::::::::::::::::::::::::::::::::::::::::::::::

           ------------------------------------------------- 
          |                Numerical Hessian                |
           ------------------------------------------------- 
step length          :   0.00500
SCC accuracy         :   0.30000
Hessian scale factor :   1.00000
frozen atoms in %    :   0.00000    0
RMS gradient         :   0.00052
estimated CPU  time      0.05 min
estimated wall time      0.02 min

writing file <hessian>.

 projected vibrational frequencies (cm⁻¹)
eigval :       -0.00    -0.00    -0.00     0.00     0.00     0.00
eigval :       50.66    72.51   151.87   224.01   236.72   268.21
eigval :      304.93   396.81   490.96   759.06   799.90   860.33
eigval :      875.31   930.50   943.10  1028.08  1043.96  1060.78
eigval :     1094.55  1148.62  1156.50  1161.67  1228.95  1247.45
eigval :     1274.35  1288.57  1308.87  1352.05  1363.33  1374.40
eigval :     1415.07  1416.72  1487.93  1494.24  1498.10  1500.84
eigval :     1505.82  1506.83  1508.36  1516.86  2957.74  2958.63
eigval :     2964.37  2970.48  2977.68  2988.67  2992.03  2996.34
eigval :     3028.27  3030.10  3031.49  3033.44  3036.79  3046.29
           -------------------------------------------------
          |                Property Printout                |
           -------------------------------------------------

    * Orbital Energies and Occupations

         #    Occupation            Energy/Eh            Energy/eV
      -------------------------------------------------------------
         1        2.0000           -0.6209214             -16.8961
       ...           ...                  ...                  ...
         7        2.0000           -0.5152235             -14.0199
         8        2.0000           -0.5067531             -13.7895
         9        2.0000           -0.4930558             -13.4167
        10        2.0000           -0.4892437             -13.3130
        11        2.0000           -0.4753038             -12.9337
        12        2.0000           -0.4652732             -12.6607
        13        2.0000           -0.4578093             -12.4576
        14        2.0000           -0.4453897             -12.1197
        15        2.0000           -0.4383326             -11.9276
        16        2.0000           -0.4318587             -11.7515
        17        2.0000           -0.4198130             -11.4237
        18        2.0000           -0.4180907             -11.3768
        19        2.0000           -0.4129137             -11.2360 (HOMO)
        20                          0.0811725               2.2088 (LUMO)
        21                          0.0965681               2.6278
        22                          0.1169543               3.1825
        23                          0.1281889               3.4882
        24                          0.1314706               3.5775
        25                          0.1440429               3.9196
        26                          0.1495597               4.0697
        27                          0.1734893               4.7209
        28                          0.1795730               4.8864
        29                          0.1916480               5.2150
        30                          0.1939629               5.2780
       ...                                ...                  ...
        38                          0.3147943               8.5660
      -------------------------------------------------------------
                  HL-Gap            0.4940862 Eh           13.4448 eV
             Fermi-level           -0.1658706 Eh           -4.5136 eV

     #   Z          covCN         q      C6AA      α(0)
     1   6 C        3.752    -0.102    22.500     6.764
     2   6 C        3.800    -0.053    21.518     6.605
     3   6 C        3.802    -0.058    21.624     6.621
     4   6 C        3.801    -0.058    21.612     6.619
     5   6 C        3.799    -0.052    21.516     6.604
     6   6 C        3.751    -0.101    22.486     6.762
     7   1 H        0.925     0.032     2.563     2.504
     8   1 H        0.925     0.031     2.567     2.506
     9   1 H        0.925     0.032     2.562     2.503
    10   1 H        0.924     0.027     2.623     2.533
    11   1 H        0.924     0.031     2.569     2.506
    12   1 H        0.924     0.027     2.624     2.533
    13   1 H        0.924     0.033     2.541     2.493
    14   1 H        0.924     0.027     2.637     2.539
    15   1 H        0.924     0.029     2.605     2.524
    16   1 H        0.924     0.026     2.643     2.542
    17   1 H        0.924     0.030     2.581     2.512
    18   1 H        0.925     0.030     2.591     2.517
    19   1 H        0.925     0.035     2.510     2.478
    20   1 H        0.925     0.032     2.552     2.498

 Mol. C6AA /au·bohr⁶  :       2548.618314
 Mol. C8AA /au·bohr⁸  :      52358.412791
 Mol. α(0) /au        :         75.163037


Wiberg/Mayer (AO) data.
largest (>0.10) Wiberg bond orders for each atom

 ---------------------------------------------------------------------------
     #   Z sym  total        # sym  WBO       # sym  WBO       # sym  WBO
 ---------------------------------------------------------------------------
     1   6 C    3.997 --     2 C    1.019     9 H    0.988     7 H    0.988
                             8 H    0.988
     2   6 C    3.998 --     1 C    1.019     3 C    1.009    10 H    0.979
                            11 H    0.977
     3   6 C    3.997 --     2 C    1.009     4 C    1.007    12 H    0.977
                            13 H    0.975
     4   6 C    3.998 --     5 C    1.008     3 C    1.007    14 H    0.978
                            15 H    0.978
     5   6 C    3.998 --     6 C    1.020     4 C    1.008    16 H    0.979
                            17 H    0.977
     6   6 C    3.997 --     5 C    1.020    20 H    0.988    18 H    0.988
                            19 H    0.986
     7   1 H    0.999 --     1 C    0.988
     8   1 H    0.999 --     1 C    0.988
     9   1 H    0.999 --     1 C    0.988
    10   1 H    0.999 --     2 C    0.979
    11   1 H    0.999 --     2 C    0.977
    12   1 H    0.999 --     3 C    0.977
    13   1 H    0.999 --     3 C    0.975
    14   1 H    0.999 --     4 C    0.978
    15   1 H    0.999 --     4 C    0.978
    16   1 H    0.999 --     5 C    0.979
    17   1 H    0.999 --     5 C    0.977
    18   1 H    0.999 --     6 C    0.988
    19   1 H    0.999 --     6 C    0.986
    20   1 H    0.999 --     6 C    0.988
 ---------------------------------------------------------------------------

Topologies differ in total number of bonds
Writing topology from bond orders to xtbtopo.mol

molecular dipole:
                 x           y           z       tot (Debye)
 q only:       -0.005       0.014       0.009
   full:       -0.002       0.012       0.005       0.033
molecular quadrupole (traceless):
                xx          xy          yy          xz          yz          zz
 q only:       -0.086       0.044       0.087       0.024      -0.020      -0.001
  q+dip:       -0.682      -0.343       0.226      -0.036      -0.078       0.455
   full:       -0.336      -0.151       0.114      -0.012      -0.040       0.222

           -------------------------------------------------
          |                Geometry Summary                 |
           -------------------------------------------------

      molecular mass/u    :       86.1755859
   center of mass at/Å    :        0.0009026       0.0014423       0.0033779
  moments of inertia/u·Å² :        0.7811780E+02   0.3081736E+03   0.3333372E+03
rotational constants/cm⁻¹ :        0.2157976E+00   0.5470174E-01   0.5057232E-01

 * 19 selected distances

     #   Z          #   Z                                           value/Å
     1   6 C        2   6 C                                       1.5242875
     2   6 C        3   6 C                                       1.5270604
     3   6 C        4   6 C                                       1.5295983
     4   6 C        5   6 C                                       1.5299428 (max)
     5   6 C        6   6 C                                       1.5244132
     1   6 C        7   1 H                                       1.0880391
     1   6 C        8   1 H                                       1.0876547
     1   6 C        9   1 H                                       1.0881184
     2   6 C       10   1 H                                       1.0925448
     2   6 C       11   1 H                                       1.0910427
     3   6 C       12   1 H                                       1.0932349
     3   6 C       13   1 H                                       1.0911934
     4   6 C       14   1 H                                       1.0930664
     4   6 C       15   1 H                                       1.0930598
     5   6 C       16   1 H                                       1.0928696
     5   6 C       17   1 H                                       1.0910771
     6   6 C       18   1 H                                       1.0877987
     6   6 C       19   1 H                                       1.0867210 (min)
     6   6 C       20   1 H                                       1.0880340

 * 2 distinct bonds (by element types)

   Z      Z             #   av. dist./Å        max./Å        min./Å
   1 H    6 C          14     1.0903182     1.0932349     1.0867210
   6 C    6 C           5     1.5270604     1.5299428     1.5242875

           -------------------------------------------------
          |               Frequency Printout                |
           -------------------------------------------------
 projected vibrational frequencies (cm⁻¹)
eigval :       -0.00    -0.00    -0.00     0.00     0.00     0.00
eigval :       50.66    72.51   151.87   224.01   236.72   268.21
eigval :      304.93   396.81   490.96   759.06   799.90   860.33
eigval :      875.31   930.50   943.10  1028.08  1043.96  1060.78
eigval :     1094.55  1148.62  1156.50  1161.67  1228.95  1247.45
eigval :     1274.35  1288.57  1308.87  1352.05  1363.33  1374.40
eigval :     1415.07  1416.72  1487.93  1494.24  1498.10  1500.84
eigval :     1505.82  1506.83  1508.36  1516.86  2957.74  2958.63
eigval :     2964.37  2970.48  2977.68  2988.67  2992.03  2996.34
eigval :     3028.27  3030.10  3031.49  3033.44  3036.79  3046.29
 reduced masses (amu)
   1:  9.12   2:  9.48   3:  9.67   4:  9.50   5:  9.15   6:  9.96   7:  7.70   8:  6.64
   9:  4.57  10:  3.97  11:  5.06  12:  5.25  13:  7.37  14:  7.50  15:  8.04  16:  2.47
  17:  2.76  18:  5.16  19:  5.65  20:  4.55  21:  4.58  22:  5.52  23:  5.49  24:  3.98
  25:  8.53  26:  7.06  27:  7.11  28:  7.52  29:  4.55  30:  3.59  31:  2.65  32:  1.95
  33:  3.60  34:  4.46  35:  4.76  36:  5.19  37:  3.23  38:  3.16  39:  1.85  40:  1.94
  41:  1.83  42:  1.75  43:  1.53  44:  1.70  45:  1.63  46:  1.66  47:  1.95  48:  1.83
  49:  1.82  50:  1.81  51:  1.57  52:  1.59  53:  1.66  54:  1.60  55:  1.96  56:  1.92
  57:  1.91  58:  1.72  59:  1.29  60:  1.51
 IR intensities (km·mol⁻¹)
   1:  0.00   2:  0.00   3:  0.00   4:  0.00   5:  0.00   6:  0.00   7:  0.00   8:  0.02
   9:  0.04  10:  0.02  11:  0.15  12:  0.05  13:  0.47  14:  0.33  15:  0.77  16: 12.76
  17:  5.80  18:  0.72  19:  2.51  20:  0.70  21:  4.17  22:  3.38  23:  1.17  24:  2.47
  25:  0.58  26:  0.93  27:  0.95  28:  0.66  29:  0.39  30:  0.24  31:  0.49  32:  0.19
  33:  1.08  34:  2.56  35:  2.34  36:  0.07  37:  2.15  38:  0.67  39:  0.04  40:  0.83
  41:  0.36  42:  0.06  43:  2.08  44:  2.30  45:  1.58  46:  1.06  47: 24.73  48:  9.02
  49: 30.32  50: 35.55  51: 87.32  52: 16.28  53: 28.10  54: 87.05  55: 64.70  56:  5.15
  57:121.27  58: 51.08  59: 26.86  60: 36.96
 Raman intensities (amu)
   1:  0.00   2:  0.00   3:  0.00   4:  0.00   5:  0.00   6:  0.00   7:  0.00   8:  0.00
   9:  0.00  10:  0.00  11:  0.00  12:  0.00  13:  0.00  14:  0.00  15:  0.00  16:  0.00
  17:  0.00  18:  0.00  19:  0.00  20:  0.00  21:  0.00  22:  0.00  23:  0.00  24:  0.00
  25:  0.00  26:  0.00  27:  0.00  28:  0.00  29:  0.00  30:  0.00  31:  0.00  32:  0.00
  33:  0.00  34:  0.00  35:  0.00  36:  0.00  37:  0.00  38:  0.00  39:  0.00  40:  0.00
  41:  0.00  42:  0.00  43:  0.00  44:  0.00  45:  0.00  46:  0.00  47:  0.00  48:  0.00
  49:  0.00  50:  0.00  51:  0.00  52:  0.00  53:  0.00  54:  0.00  55:  0.00  56:  0.00
  57:  0.00  58:  0.00  59:  0.00  60:  0.00
 output can be read by thermo (or use thermo option).
 writing <g98.out> molden fake output.
 recommended (thermochemical) frequency scaling factor: 1.0
           -------------------------------------------------
          |             Thermodynamic Functions             |
           -------------------------------------------------

Molecule has no symmetry elements
It seems to be the C1 point group
c1  symmetry found (for desy threshold:  0.10E+00) used in thermo

          ...................................................
          :                      SETUP                      :
          :.................................................:
          :  # frequencies                          54      :
          :  # imaginary freq.                       0      :
          :  linear?                             false      :
          :  only rotor calc.                    false      :
          :  symmetry                               c1      :
          :  rotational number                       1      :
          :  scaling factor                  1.0000000      :
          :  rotor cutoff                   50.0000000 cm⁻¹ :
          :  imag. cutoff                  -20.0000000 cm⁻¹ :
          :.................................................:

    mode    ω/cm⁻¹     T·S(HO)/kcal·mol⁻¹    T·S(FR)/kcal·mol⁻¹   T·S(vib)
   ------------------------------------------------------------------------
       1     50.66    -1.42854 ( 51.32%)    -1.05224 ( 48.68%)    -1.24534
       2     72.51    -1.21768 ( 81.56%)    -0.94616 ( 18.44%)    -1.16761
       3    151.87    -0.78972 ( 98.84%)    -0.72730 (  1.16%)    -0.78899
       4    224.01    -0.57437 ( 99.75%)    -0.61219 (  0.25%)    -0.57446
       5    236.72    -0.54483 ( 99.80%)    -0.59584 (  0.20%)    -0.54493
       6    268.21    -0.47934 ( 99.88%)    -0.55886 (  0.12%)    -0.47944
   ------------------------------------------------------------------------

   temp. (K)  partition function   enthalpy   heat capacity  entropy
                                   cal/mol     cal/K/mol   cal/K/mol   J/K/mol
 298.15  VIB   181.                 3399.397     22.235     20.951
         ROT  0.216E+06              888.752      2.981     27.394
         INT  0.392E+08             4288.149     25.215     48.345
         TR   0.774E+27             1481.254      4.968     39.257
         TOT                        5769.4034    30.1836    87.6021   366.5274

       T/K    H(0)-H(T)+PV         H(T)/Eh          T*S/Eh         G(T)/Eh
   ------------------------------------------------------------------------
    298.15    0.919413E-02    0.196824E+00    0.416226E-01    0.155202E+00
   ------------------------------------------------------------------------

         :::::::::::::::::::::::::::::::::::::::::::::::::::::
         ::                  THERMODYNAMIC                  ::
         :::::::::::::::::::::::::::::::::::::::::::::::::::::
         :: total free energy         -19.836828955822 Eh   ::
         ::.................................................::
         :: total energy              -19.992030611581 Eh   ::
         :: zero point energy           0.187630129441 Eh   ::
         :: G(RRHO) w/o ZPVE           -0.032428473681 Eh   ::
         :: G(RRHO) contrib.            0.155201655759 Eh   ::
         :::::::::::::::::::::::::::::::::::::::::::::::::::::
 
 normal mode %tage of torsion character
   1:  0.00   2:  0.00   3:  0.00   4:  0.00   5:  0.00   6:  0.00   7:  0.55   8:  0.55
   9:  0.54  10:  0.66  11:  0.60  12:  0.73  13:  0.42  14:  0.22  15:  0.22  16:  0.55
  17:  0.52  18:  0.45  19:  0.30  20:  0.22  21:  0.22  22:  0.08  23:  0.33  24:  0.21
  25:  0.02  26:  0.44  27:  0.30  28:  0.25  29:  0.38  30:  0.29  31:  0.19  32:  0.19
  33:  0.08  34:  0.09  35:  0.10  36:  0.07  37:  0.00  38:  0.00  39:  0.66  40:  0.65
  41:  0.64  42:  0.72  43:  0.92  44:  0.79  45:  0.90  46:  0.82  47:  0.22  48:  0.34
  49:  0.17  50:  0.20  51:  0.01  52:  0.05  53:  0.03  54:  0.07  55:  0.07  56:  0.04
  57:  0.03  58:  0.03  59:  0.00  60:  0.02
 recommended # of modes for mode following           4

optimized geometry written to: xtbopt.xyz


           -------------------------------------------------
          | TOTAL ENERGY              -19.992030611581 Eh   |
          | TOTAL ENTHALPY            -19.795206352606 Eh   |
          | TOTAL FREE ENERGY         -19.836828955822 Eh   |
          | GRADIENT NORM               0.000521764549 Eh/α |
          | HOMO-LUMO GAP              13.444769569735 eV   |
           -------------------------------------------------

------------------------------------------------------------------------
 * finished run on 2024/04/20 at 10:55:59.184     
------------------------------------------------------------------------
 total:
 * wall-time:     0 d,  0 h,  0 min,  0.851 sec
 *  cpu-time:     0 d,  0 h,  0 min,  1.775 sec
 * ratio c/w:     2.085 speedup
 SCF:
 * wall-time:     0 d,  0 h,  0 min,  0.009 sec
 *  cpu-time:     0 d,  0 h,  0 min,  0.033 sec
 * ratio c/w:     3.687 speedup
 ANC optimizer:
 * wall-time:     0 d,  0 h,  0 min,  0.111 sec
 *  cpu-time:     0 d,  0 h,  0 min,  0.356 sec
 * ratio c/w:     3.217 speedup
 analytical hessian:
 * wall-time:     0 d,  0 h,  0 min,  0.450 sec
 *  cpu-time:     0 d,  0 h,  0 min,  1.178 sec
 * ratio c/w:     2.621 speedup

