20
 energy: -19.992030611581 gnorm: 0.000521769291 xtb: 6.6.1 (8d0f1dd)
C            2.73379159661930        0.36802205807942        0.50931102323342
C            1.41588885598467       -0.37515023103618        0.32416414169784
C            0.52907485823024        0.30866532347693       -0.71404113803938
C           -0.75603366118130       -0.46046776076821       -1.02484785891757
C           -1.71659778100533       -0.61848969050302        0.15543610069191
C           -2.23485064316233        0.71095402896405        0.69193265552081
H            3.28616373969799        0.40696179167897       -0.42727723349432
H            3.35358305547846       -0.12804414034852        1.25279570140658
H            2.55204396150624        1.38858387198739        0.84010224814081
H            1.61850734621705       -1.40051740072047        0.00601039330729
H            0.89694954889896       -0.41971447370292        1.28285590810666
H            1.09633830701926        0.41106590440170       -1.64295907491906
H            0.28344590798225        1.31563203928475       -0.37288522918154
H           -0.48907971073236       -1.45560077869153       -1.38986813792993
H           -1.28061648117847        0.05614932293196       -1.83274584862196
H           -2.56642444422335       -1.21903108879019       -0.17849273972435
H           -1.22646692684904       -1.16952889750794        0.95953599634705
H           -2.99124514475345        0.54059476701511        1.45492079523897
H           -1.43219655146980        1.29243813309937        1.13756127683813
H           -2.68151816854686        1.29634278509964       -0.10908282523386
