20
 energy: -19.990672401017 gnorm: 0.023435762352 xtb: 6.6.1 (8d0f1dd)
C            2.71641800000000        0.36915400000000        0.54039900000000
C            1.40971300000000       -0.37459900000000        0.30964000000000
C            0.52449300000000        0.30041100000000       -0.73968900000000
C           -0.76554400000000       -0.46755700000000       -1.04459400000000
C           -1.70975000000000       -0.61725400000000        0.15345000000000
C           -2.21112300000000        0.71208700000000        0.69629800000000
H            3.30025900000000        0.43823500000000       -0.37986800000000
H            3.34251800000000       -0.12160400000000        1.28969100000000
H            2.53436300000000        1.39007400000000        0.88277000000000
H            1.61250600000000       -1.40926600000000        0.00135400000000
H            0.85951100000000       -0.46244500000000        1.25557500000000
H            1.10561300000000        0.43282600000000       -1.66232900000000
H            0.28459100000000        1.31948300000000       -0.41323800000000
H           -0.50399100000000       -1.46010300000000       -1.43521300000000
H           -1.30556900000000        0.02931100000000       -1.86168000000000
H           -2.56762300000000       -1.24332300000000       -0.13209700000000
H           -1.20780700000000       -1.18161500000000        0.95017800000000
H           -2.91990000000000        0.57788800000000        1.51821500000000
H           -1.39133000000000        1.32685700000000        1.07443900000000
H           -2.71659800000000        1.29030600000000       -0.08087200000000
20
 energy: -19.991803731732 gnorm: 0.010303107138 xtb: 6.6.1 (8d0f1dd)
C            2.71218286204070        0.37107925484692        0.53369674222538
C            1.40797231653152       -0.37788526507929        0.31070779419699
C            0.52640820718043        0.30345602702576       -0.73476135284342
C           -0.76129225662833       -0.46397634702286       -1.03764864482488
C           -1.70605456673310       -0.61629177461708        0.15610019350931
C           -2.21022284728282        0.71381862449040        0.69372470319240
H            3.28961251878408        0.43206641809024       -0.38869941318869
H            3.32528163027795       -0.12926332983138        1.28274866034247
H            2.52169595658852        1.38724602996374        0.87912248155983
H            1.62177942564671       -1.40369723225924       -0.00963800827937
H            0.86722184019085       -0.44488864457393        1.25964558575231
H            1.09859401735115        0.41001578344801       -1.66332478970712
H            0.28336101809866        1.31675226497124       -0.40199507335549
H           -0.50089447324957       -1.46056030918563       -1.41120462599093
H           -1.29550121351682        0.04702169502367       -1.84639883942679
H           -2.56337728450971       -1.22605934945860       -0.15200456387546
H           -1.20337248232512       -1.17024756117837        0.95470595453270
H           -2.91847302502272        0.55916577722084        1.50748828667504
H           -1.39082951953076        1.31875626971080        1.07877996470030
H           -2.71334212389162        1.28235766841474       -0.08861605519460
20
 energy: -19.991956825280 gnorm: 0.002126183487 xtb: 6.6.1 (8d0f1dd)
C            2.71394900781220        0.37216307633995        0.53059928957984
C            1.40809855088860       -0.37918586501921        0.31211045024667
C            0.52837349868460        0.30310355372764       -0.73264773859755
C           -0.75986682282543       -0.46280592151624       -1.03491255220854
C           -1.70671157453585       -0.61609125841044        0.15633849456606
C           -2.21317381325169        0.71506042183590        0.69483809114606
H            3.28507031235973        0.43005624561434       -0.39391605022823
H            3.32318873701662       -0.13046329713018        1.27887122599982
H            2.51811637941221        1.38608136044045        0.87439627576880
H            1.62503920859218       -1.40000100798746       -0.01294115566378
H            0.87311714286487       -0.43813877895292        1.26166771048024
H            1.09669349891554        0.39838195210170       -1.66227679390942
H            0.28639155438069        1.31330238695117       -0.39754812853580
H           -0.49860164811732       -1.45944533249214       -1.40124922989672
H           -1.29081749502815        0.05439511464063       -1.83892451610081
H           -2.56217762528300       -1.21788972322301       -0.16284387791233
H           -1.20585328347378       -1.16560482700624        0.95535795868189
H           -2.92404990868510        0.55105729290044        1.50206055171218
H           -1.39511355180365        1.31524746531681        1.08459138493898
H           -2.71092216792326        1.27964314186880       -0.09114239006735
20
 energy: -19.991972628517 gnorm: 0.000632701193 xtb: 6.6.1 (8d0f1dd)
C            2.71614054677936        0.37258626184441        0.52906626207630
C            1.40920108659362       -0.38001633075325        0.31306084577728
C            0.52961460693948        0.30290038288610       -0.73148991528886
C           -0.75958017468561       -0.46229546799260       -1.03397438428003
C           -1.70818361801356       -0.61631592529577        0.15621560935561
C           -2.21605473995308        0.71526006685546        0.69539148338487
H            3.28484780345508        0.42948803250123       -0.39665084797069
H            3.32632202104728       -0.12903535193849        1.27678842284790
H            2.51946004167172        1.38651238655335        0.87150273134075
H            1.62601425829111       -1.40042223057405       -0.01162943668926
H            0.87595457747333       -0.43755862866194        1.26308485850323
H            1.09745736873544        0.39601356207304       -1.66104286529471
H            0.28890751326757        1.31324790562345       -0.39707516515167
H           -0.49827911289889       -1.45859965719010       -1.39985006449421
H           -1.28949219352247        0.05557728161229       -1.83758755390421
H           -2.56318242980000       -1.21623319255864       -0.16569333321400
H           -1.20925246613243       -1.16622274102443        0.95555929123913
H           -2.92987053542982        0.54922539930163        1.49925758739732
H           -1.39904957405547        1.31385159580445        1.08920642813905
H           -2.71022497976267        1.28090265093387       -0.09171095377379
20
 energy: -19.991994126084 gnorm: 0.002958373000 xtb: 6.6.1 (8d0f1dd)
C            2.72348164372727        0.37343628939015        0.52363577083210
C            1.41359608017502       -0.38135860164345        0.31669575948343
C            0.53296549423022        0.30170675711561       -0.72717015201938
C           -0.75891741548483       -0.46079496953153       -1.03087401707372
C           -1.71340780716138       -0.61636725244522        0.15538574243953
C           -2.22541554017180        0.71504665095456        0.69671801356458
H            3.28531444835191        0.42686636569457       -0.40617004998687
H            3.33848842671057       -0.12403524934638        1.26963972947335
H            2.52623033391703        1.38832737093046        0.86183977651199
H            1.62910170178616       -1.40208047019012       -0.00580925070756
H            0.88504621689345       -0.43597143667119        1.26889089524043
H            1.10013733912348        0.39092546128015       -1.65684176015197
H            0.29609137605133        1.31336105765918       -0.39487670785214
H           -0.49791535313877       -1.45652310098400       -1.39716150764796
H           -1.28575094339306        0.05853101916416       -1.83483509317750
H           -2.56726139943410       -1.21269348980327       -0.17375007825763
H           -1.22071187007091       -1.16898494864406        0.95615846517768
H           -2.95082490397535        0.54428720521874        1.48905548790885
H           -1.41235715972018        1.30886872654347        1.10569480205869
H           -2.70714066841609        1.28631861530817       -0.09379682581588
20
 energy: -19.992002300395 gnorm: 0.001971247000 xtb: 6.6.1 (8d0f1dd)
C            2.72475188153977        0.37329386583702        0.52196570957020
C            1.41471217779111       -0.38094404788513        0.31767405294104
C            0.53308882161084        0.30151287654815       -0.72570840006278
C           -0.75868453942599       -0.46054829379053       -1.02986327625428
C           -1.71441756161119       -0.61611801597675        0.15514939442199
C           -2.22709131771909        0.71449469992653        0.69645007247156
H            3.28556357490131        0.42545689672105       -0.40868902246886
H            3.34114160717224       -0.12334976293208        1.26757881915893
H            2.52892035637151        1.38884613163946        0.85940709729404
H            1.62944605747456       -1.40237596145498       -0.00406913420964
H            0.88702225373369       -0.43494898511195        1.27070294220109
H            1.10025535093976        0.39125714069012       -1.65567130861888
H            0.29630096770876        1.31337331337095       -0.39327217486393
H           -0.49801674007459       -1.45647525771958       -1.39664140144939
H           -1.28473575788326        0.05911381332356       -1.83448958888550
H           -2.56799179042066       -1.21275806411268       -0.17519517124358
H           -1.22277611034977       -1.16953618365048        0.95634622753572
H           -2.95609294090287        0.54347569450051        1.48554670126596
H           -1.41537675783988        1.30710287338576        1.10997249775604
H           -2.70526953301625        1.28799326669108       -0.09476503655973
20
 energy: -19.992014894959 gnorm: 0.002200235826 xtb: 6.6.1 (8d0f1dd)
C            2.73091477589476        0.37194302102811        0.51323741147133
C            1.41918571505800       -0.37845893551017        0.32266760169394
C            0.53282670576298        0.30173097180139       -0.71802589308207
C           -0.75731338943257       -0.45958641803328       -1.02508825018191
C           -1.71859965956982       -0.61544487245280        0.15429757833402
C           -2.23462927770412        0.71181332875243        0.69459515073710
H            3.28637039159928        0.41721761158357       -0.42168836962963
H            3.35306108710247       -0.12150859783374        1.25703770189427
H            2.54284713338926        1.39081511859665        0.84672421536939
H            1.62918519500516       -1.40300267672680        0.00423608817784
H            0.89624676188922       -0.42837549828568        1.27970352021838
H            1.09974371088362        0.39543452337234       -1.64892736515553
H            0.29469860540376        1.31325660781450       -0.38323494968778
H           -0.49729906162841       -1.45620248055870       -1.39314011335830
H           -1.27973841530209        0.06136745451182       -1.83256815516692
H           -2.57025821054649       -1.21382286617686       -0.18165353379434
H           -1.23121297260723       -1.17127748393569        0.95761401075985
H           -2.98226678617147        0.53955238670590        1.46674587374681
H           -1.42936666613876        1.29757333260486        1.13116574997239
H           -2.69364564288755        1.29584147274215       -0.10126927231885
20
 energy: -19.992019258491 gnorm: 0.001392134664 xtb: 6.6.1 (8d0f1dd)
C            2.73057926431183        0.37157453515277        0.51358771039034
C            1.41832592475374       -0.37830924008798        0.32237588426964
C            0.53232440158259        0.30257557724247       -0.71823707039006
C           -0.75728007583365       -0.45983159264114       -1.02554421396811
C           -1.71790840679399       -0.61592920517773        0.15451816491888
C           -2.23382575091591        0.71194460513073        0.69436430817460
H            3.28617462712784        0.41677474005482       -0.42110119874206
H            3.35185994152214       -0.12254234350840        1.25750422133883
H            2.54256081006329        1.39032548272308        0.84713241547424
H            1.62790488464711       -1.40261397210781        0.00364389992704
H            0.89542268569597       -0.42790586259722        1.27919310480990
H            1.09930310271973        0.39707811495240       -1.64876222222311
H            0.29325218632142        1.31346267437866       -0.38272448538776
H           -0.49641555363402       -1.45619587557460       -1.39306369429557
H           -1.28029198866312        0.06054913179097       -1.83272427154319
H           -2.56947375846960       -1.21444248263833       -0.18059317606680
H           -1.22966043284488       -1.17083611356468        0.95769335266351
H           -2.98061488672286        0.54025902738616        1.46696941273909
H           -1.42837484041682        1.29777082781749        1.12972936065675
H           -2.69311213445082        1.29515797126832       -0.10153250274616
20
 energy: -19.992027339607 gnorm: 0.001296897559 xtb: 6.6.1 (8d0f1dd)
C            2.73171972163747        0.36901503406772        0.51189763158057
C            1.41536142291119       -0.37641480410494        0.32284058783450
C            0.52962331717290        0.30743220019701       -0.71633978850304
C           -0.75657287912317       -0.46066959557167       -1.02606538591399
C           -1.71592683151578       -0.61821925558285        0.15547085704251
C           -2.23285959688764        0.71177954596943        0.69264912569648
H            3.28573362534243        0.41073054185770       -0.42344407964360
H            3.35063449081167       -0.12734855668757        1.25577479292803
H            2.54707104439528        1.38850662666778        0.84404919599690
H            1.62039164126481       -1.40079501046668        0.00380834994077
H            0.89471059786070       -0.42266194632864        1.28025790447991
H            1.09687137638939        0.40776395289796       -1.64523888334016
H            0.28517649472693        1.31493470241161       -0.37631591621142
H           -0.49080148643330       -1.45586312837357       -1.39120526108298
H           -1.28150948467685        0.05663590971662       -1.83300826063860
H           -2.56634819203981       -1.21802553046947       -0.17746314250603
H           -1.22505846656959       -1.16923289547737        0.95891351441271
H           -2.98359783460419        0.54157205330158        1.46077753040428
H           -1.42829050838047        1.29515322030744        1.13154631838297
H           -2.68557845228199        1.29457293566792       -0.10647609085979
20
 energy: -19.992030611566 gnorm: 0.000521671122 xtb: 6.6.1 (8d0f1dd)
C            2.73378789177532        0.36803548324106        0.50932120830034
C            1.41588968869233       -0.37514338323554        0.32416842933897
C            0.52907573452568        0.30866933993537       -0.71403875249248
C           -0.75602767276888       -0.46046993064264       -1.02485130163144
C           -1.71659508514124       -0.61849894985528        0.15542902916155
C           -2.23485678096528        0.71094111966593        0.69192609523058
H            3.28616310026487        0.40697974370531       -0.42726505231075
H            3.35357935276765       -0.12802876758817        1.25280718416406
H            2.55203375833750        1.38859576816660        0.84011357998237
H            1.61851465829673       -1.40050893671446        0.00601359864008
H            0.89694726848916       -0.41971201629107        1.28285830651738
H            1.09634188967058        0.41107451230724       -1.64295453051606
H            0.28344032095838        1.31563417418979       -0.37288194357621
H           -0.48906723765979       -1.45560091370424       -1.38987238561008
H           -1.28061037766040        0.05614581639163       -1.83275022081649
H           -2.56641743828348       -1.21904421499435       -0.17850382584609
H           -1.22646415259825       -1.16953699395471        0.95952967395971
H           -2.99125305387345        0.54057656558632        1.45491129729124
H           -1.43220728946962        1.29242864870583        1.13755853321376
H           -2.68152457535782        1.29632893508538       -0.10908992300044
