 Entering Gaussian System
 *********************************************
 Gaussian 98:
 frequency output generated by the xtb code
 *********************************************
                         Standard orientation:
 --------------------------------------------------------------------
  Center     Atomic     Atomic              Coordinates (Angstroms)
  Number     Number      Type              X           Y           Z
 --------------------------------------------------------------------
    1          6             0       -2.548795    2.584815   -0.219308
    2          6             0       -2.229444    1.243051    0.427788
    3          6             0       -2.679669    0.073320   -0.445131
    4          6             0       -2.516102   -1.290322    0.230130
    5          6             0       -1.074164   -1.662150    0.580614
    6          6             0       -0.194317   -1.876030   -0.648516
    7          6             0        1.253400   -2.228158   -0.301513
    8          6             0        2.014423   -1.142125    0.463131
    9          6             0        2.070084    0.196194   -0.270041
   10          6             0        2.956973    1.207358    0.451919
   11          6             0        2.945477    2.563389   -0.243612
   12          1             0       -2.207784    3.404149    0.409831
   13          1             0       -3.620586    2.691972   -0.370791
   14          1             0       -2.058345    2.668429   -1.186819
   15          1             0       -1.154099    1.183866    0.602040
   16          1             0       -2.727115    1.180054    1.398108
   17          1             0       -2.128126    0.091384   -1.386772
   18          1             0       -3.736902    0.207317   -0.688773
   19          1             0       -2.928969   -2.058018   -0.429399
   20          1             0       -3.107935   -1.293840    1.149232
   21          1             0       -1.086631   -2.584827    1.166662
   22          1             0       -0.648885   -0.882542    1.211257
   23          1             0       -0.203324   -0.983100   -1.272722
   24          1             0       -0.614321   -2.692091   -1.242498
   25          1             0        1.787849   -2.438225   -1.231611
   26          1             0        1.262528   -3.142966    0.296586
   27          1             0        1.563908   -0.996362    1.446745
   28          1             0        3.035852   -1.495656    0.627359
   29          1             0        2.451006    0.039666   -1.281937
   30          1             0        1.065779    0.613754   -0.353961
   31          1             0        2.606191    1.324823    1.479839
   32          1             0        3.980170    0.828120    0.494589
   33          1             0        1.936356    2.968614   -0.271039
   34          1             0        3.303211    2.469977   -1.266431
   35          1             0        3.584245    3.270515    0.279888
 --------------------------------------------------------------------
     1 basis functions        1 primitive gaussians
     1 alpha electrons        1 beta electrons
 
 Harmonic frequencies (cm**-1), IR intensities (KM/Mole),
 Raman scattering activities (A**4/amu), Raman depolarization ratios,
 reduced masses (AMU), force constants (mDyne/A) and normal coordinates:
                      1                      2                      3
                        a                      a                      a 
 Frequencies --     5.2262                25.9751                37.4987
 Red. masses --    99.0000                99.0000                99.0000
 Frc consts  --    99.0000                99.0000                99.0000
 IR Inten    --    99.0000                99.0000                99.0000
 Raman Activ --     0.0000                 0.0000                 0.0000
 Depolar     --     0.0000                 0.0000                 0.0000
 Atom AN      X      Y      Z        X      Y      Z        X      Y      Z
   1   6     0.38   0.09   0.22     0.24   0.02  -0.30    -0.31   0.12   0.02
   2   6     0.10  -0.01   0.16     0.18   0.09  -0.11    -0.37   0.15   0.11
   3   6     0.23   0.13  -0.08     0.04  -0.00   0.10     0.12   0.10  -0.08
   4   6     0.02   0.03  -0.22     0.08   0.07   0.24     0.14   0.11  -0.08
   5   6    -0.06  -0.12  -0.07     0.12   0.06   0.09     0.14   0.17  -0.01
   6   6     0.05  -0.20   0.02    -0.04  -0.04  -0.01     0.11  -0.09   0.02
   7   6     0.04  -0.09   0.16    -0.01  -0.07  -0.17     0.09  -0.14   0.05
   8   6    -0.06   0.03   0.09     0.07  -0.13  -0.17     0.13  -0.13   0.00
   9   6    -0.13  -0.03  -0.03    -0.12  -0.03  -0.00    -0.07  -0.09   0.07
  10   6    -0.24   0.11  -0.07    -0.13  -0.05   0.04     0.17  -0.14  -0.13
  11   6    -0.33   0.05  -0.19    -0.43   0.08   0.29    -0.13  -0.06   0.03
  12   1     0.08  -0.00   0.12     0.10   0.03  -0.13    -0.20   0.04   0.05
  13   1     0.12   0.06  -0.02     0.07   0.02  -0.07    -0.08  -0.01  -0.12
  14   1     0.19   0.05   0.11     0.06  -0.05  -0.10     0.02   0.06   0.06
  15   1     0.01  -0.03   0.13     0.05   0.01  -0.05    -0.12   0.09   0.15
  16   1    -0.05  -0.02   0.01     0.07   0.08  -0.02    -0.21   0.02  -0.02
  17   1     0.12   0.06   0.01    -0.02  -0.04   0.01     0.12   0.07   0.03
  18   1     0.08   0.06  -0.08     0.00  -0.00   0.06     0.05  -0.02  -0.12
  19   1     0.01   0.04  -0.11    -0.01   0.00   0.11     0.06   0.03  -0.03
  20   1    -0.03  -0.01  -0.09     0.06   0.06   0.09     0.02   0.03  -0.03
  21   1    -0.06  -0.04  -0.02     0.05   0.03   0.04     0.04   0.08   0.05
  22   1    -0.01  -0.05  -0.00     0.06   0.03  -0.01     0.05   0.08  -0.05
  23   1     0.02  -0.08  -0.02    -0.02  -0.02  -0.02     0.05  -0.06  -0.04
  24   1     0.04  -0.08   0.02    -0.04  -0.01   0.02     0.01  -0.05   0.04
  25   1     0.03  -0.05   0.06    -0.03  -0.00  -0.07     0.03  -0.06   0.02
  26   1     0.01  -0.01   0.08     0.01  -0.03  -0.07     0.02  -0.03   0.02
  27   1    -0.03   0.03   0.02     0.07  -0.08  -0.02     0.07  -0.06   0.02
  28   1    -0.01   0.03   0.05     0.03  -0.03  -0.11     0.05  -0.02  -0.05
  29   1    -0.02  -0.03   0.00    -0.06   0.04  -0.02    -0.11  -0.01  -0.01
  30   1    -0.04  -0.03  -0.03    -0.05  -0.03   0.05    -0.03  -0.02   0.12
  31   1    -0.09   0.05  -0.03     0.01  -0.08   0.03     0.16  -0.08   0.00
  32   1    -0.06   0.06   0.00    -0.02   0.02  -0.06     0.06  -0.03  -0.16
  33   1    -0.11  -0.01  -0.08    -0.14  -0.01   0.16    -0.04  -0.02   0.14
  34   1    -0.08  -0.00  -0.05    -0.18   0.09   0.06    -0.16   0.02  -0.04
  35   1    -0.12   0.04  -0.06    -0.12   0.02   0.09     0.02  -0.03  -0.04
                      4                      5                      6
                        a                      a                      a 
 Frequencies --    54.3840                67.9245               108.0750
 Red. masses --    99.0000                99.0000                99.0000
 Frc consts  --    99.0000                99.0000                99.0000
 IR Inten    --    99.0000                99.0000                99.0000
 Raman Activ --     0.0000                 0.0000                 0.0000
 Depolar     --     0.0000                 0.0000                 0.0000
 Atom AN      X      Y      Z        X      Y      Z        X      Y      Z
   1   6    -0.35   0.11   0.13    -0.19   0.02   0.19     0.04  -0.01   0.01
   2   6     0.13   0.12  -0.08     0.38  -0.03  -0.21    -0.11  -0.03   0.03
   3   6     0.09   0.09  -0.02     0.04   0.03  -0.12    -0.10  -0.00  -0.01
   4   6     0.11   0.12   0.02    -0.04   0.02  -0.13    -0.11  -0.02  -0.04
   5   6     0.12   0.14   0.00    -0.08  -0.03  -0.03    -0.13  -0.00   0.04
   6   6     0.05  -0.11  -0.01     0.02  -0.00   0.04    -0.03   0.09   0.08
   7   6     0.05  -0.13  -0.01    -0.01  -0.01   0.15    -0.06   0.01   0.14
   8   6     0.07  -0.12  -0.05    -0.03   0.02   0.13     0.05   0.03  -0.01
   9   6     0.17  -0.17  -0.13    -0.08   0.00   0.09     0.50  -0.16  -0.32
  10   6    -0.30   0.03   0.17     0.20  -0.06  -0.16     0.21  -0.04  -0.12
  11   6    -0.09  -0.08  -0.03    -0.17   0.03   0.03    -0.23   0.12   0.19
  12   1    -0.08   0.04   0.02     0.05  -0.01   0.02     0.00  -0.01   0.02
  13   1    -0.12  -0.02   0.16    -0.09  -0.02   0.27     0.02   0.02  -0.03
  14   1    -0.21   0.08  -0.02    -0.25   0.06  -0.04     0.05  -0.01   0.02
  15   1     0.06   0.09  -0.12     0.14   0.03  -0.24    -0.04  -0.03   0.04
  16   1     0.13  -0.01   0.02     0.27  -0.07   0.02    -0.06  -0.00  -0.00
  17   1     0.01   0.02  -0.02    -0.04  -0.02  -0.07    -0.02   0.01   0.00
  18   1     0.02   0.02   0.01     0.00   0.05   0.03    -0.03   0.00  -0.01
  19   1     0.03   0.03   0.02    -0.01   0.01  -0.05    -0.02  -0.00  -0.03
  20   1     0.04   0.05   0.01    -0.03   0.01  -0.05    -0.05  -0.02  -0.02
  21   1     0.04   0.07   0.05    -0.04  -0.01  -0.02    -0.04  -0.01  -0.01
  22   1     0.05   0.07  -0.05    -0.03  -0.02   0.01    -0.05  -0.01   0.03
  23   1     0.01  -0.06  -0.05     0.02   0.00   0.02     0.01   0.04   0.05
  24   1    -0.01  -0.06   0.04     0.02   0.00  -0.00    -0.00   0.04  -0.00
  25   1     0.01  -0.05  -0.00     0.01  -0.02   0.06    -0.02  -0.05   0.05
  26   1     0.01  -0.03   0.01    -0.02   0.01   0.06    -0.05   0.03   0.08
  27   1     0.01  -0.01  -0.02    -0.00   0.01   0.04    -0.03   0.12  -0.04
  28   1     0.01  -0.05   0.01    -0.00   0.01   0.03    -0.02  -0.05   0.08
  29   1     0.18  -0.05   0.01    -0.10  -0.01  -0.00     0.27  -0.12  -0.03
  30   1     0.04  -0.10  -0.16    -0.02   0.03   0.10     0.16  -0.03  -0.25
  31   1    -0.24   0.04  -0.01     0.19  -0.06   0.00     0.05  -0.10  -0.03
  32   1    -0.08   0.04   0.22     0.07  -0.01  -0.19     0.09   0.08  -0.05
  33   1    -0.04  -0.07  -0.20    -0.05   0.01   0.18    -0.10  -0.05   0.10
  34   1     0.15  -0.05   0.06    -0.21   0.05  -0.05    -0.08   0.14   0.04
  35   1    -0.15   0.03   0.07     0.03  -0.01  -0.07    -0.12   0.05   0.09
                      7                      8                      9
                        a                      a                      a 
 Frequencies --   231.5182               148.5456               192.5133
 Red. masses --    99.0000                99.0000                99.0000
 Frc consts  --    99.0000                99.0000                99.0000
 IR Inten    --    99.0000                99.0000                99.0000
 Raman Activ --     0.0000                 0.0000                 0.0000
 Depolar     --     0.0000                 0.0000                 0.0000
 Atom AN      X      Y      Z        X      Y      Z        X      Y      Z
   1   6     0.00   0.01  -0.02    -0.08   0.00  -0.00     0.15   0.03   0.03
   2   6    -0.11   0.02   0.05     0.06   0.03  -0.02    -0.12  -0.03   0.05
   3   6     0.05   0.03  -0.04     0.21   0.00  -0.07    -0.37   0.01   0.12
   4   6    -0.04  -0.00  -0.07    -0.00   0.02   0.03     0.06  -0.03  -0.06
   5   6    -0.08  -0.07   0.09    -0.06  -0.11   0.12     0.18   0.28  -0.21
   6   6    -0.02  -0.01   0.11    -0.12  -0.39   0.12     0.11  -0.24  -0.17
   7   6     0.02  -0.02  -0.03    -0.03  -0.05   0.05     0.09  -0.07   0.10
   8   6     0.18  -0.06  -0.13    -0.14   0.20  -0.20    -0.14   0.09   0.10
   9   6     0.12  -0.01  -0.04    -0.12   0.16  -0.28    -0.04  -0.00  -0.05
  10   6    -0.16   0.10   0.15    -0.03  -0.03  -0.10    -0.01  -0.03  -0.03
  11   6     0.04   0.01  -0.04     0.27   0.17   0.30     0.05   0.02   0.06
  12   1     0.22   0.00  -0.12    -0.07   0.01   0.01     0.23  -0.01  -0.06
  13   1    -0.01   0.12   0.19    -0.02  -0.04  -0.02     0.04   0.14   0.14
  14   1    -0.17  -0.12  -0.11    -0.01   0.03   0.01    -0.07  -0.09  -0.06
  15   1    -0.04   0.00   0.06     0.02   0.04   0.01    -0.03  -0.06  -0.02
  16   1    -0.07   0.01  -0.01     0.01  -0.01  -0.01    -0.01   0.03   0.03
  17   1     0.06   0.02   0.02     0.11  -0.02   0.01    -0.20   0.04  -0.02
  18   1     0.02   0.00  -0.06     0.08   0.01  -0.08    -0.13  -0.02   0.15
  19   1     0.01   0.01  -0.05    -0.02   0.01   0.02     0.05  -0.02  -0.02
  20   1    -0.05  -0.01  -0.04    -0.01   0.05   0.00     0.05  -0.08   0.00
  21   1    -0.05  -0.03   0.01    -0.05  -0.00   0.08     0.11   0.16   0.07
  22   1    -0.03  -0.04   0.05     0.01  -0.01  -0.01     0.05   0.18  -0.18
  23   1    -0.01   0.01   0.04    -0.08  -0.17  -0.04     0.02  -0.15  -0.16
  24   1    -0.01   0.01   0.02    -0.02  -0.18   0.12     0.04  -0.15   0.06
  25   1    -0.03  -0.01  -0.03    -0.02  -0.04   0.01     0.08  -0.05   0.07
  26   1     0.02  -0.01  -0.01     0.06   0.02   0.07     0.01   0.01   0.07
  27   1     0.09  -0.03  -0.01    -0.04   0.09  -0.06    -0.10   0.06  -0.00
  28   1     0.06  -0.03  -0.09    -0.03   0.08  -0.03    -0.04   0.05   0.11
  29   1     0.10   0.02   0.01    -0.02   0.04  -0.08     0.02  -0.04   0.00
  30   1     0.02  -0.04  -0.07    -0.03   0.06  -0.09    -0.00   0.01  -0.06
  31   1    -0.13   0.06   0.01    -0.01  -0.07  -0.02     0.00  -0.02  -0.01
  32   1    -0.05   0.03   0.14    -0.03  -0.06  -0.04    -0.01  -0.02  -0.02
  33   1     0.09   0.23   0.31     0.10   0.12   0.11     0.03   0.05   0.08
  34   1    -0.36  -0.13  -0.13     0.09   0.12   0.08    -0.04   0.01  -0.00
  35   1     0.35  -0.12  -0.26     0.12  -0.04   0.16     0.07  -0.04   0.00
                     10                     11                     12
                        a                      a                      a 
 Frequencies --   221.4379               200.0811               246.9849
 Red. masses --    99.0000                99.0000                99.0000
 Frc consts  --    99.0000                99.0000                99.0000
 IR Inten    --    99.0000                99.0000                99.0000
 Raman Activ --     0.0000                 0.0000                 0.0000
 Depolar     --     0.0000                 0.0000                 0.0000
 Atom AN      X      Y      Z        X      Y      Z        X      Y      Z
   1   6    -0.07   0.05  -0.16    -0.14   0.01  -0.16     0.06  -0.07   0.09
   2   6    -0.12   0.18   0.16     0.07   0.18   0.11    -0.11  -0.14   0.01
   3   6     0.01   0.12   0.16     0.17   0.07   0.20     0.26  -0.11  -0.22
   4   6    -0.03   0.00  -0.07     0.08   0.03   0.16     0.07   0.01   0.05
   5   6    -0.09  -0.29  -0.08     0.07  -0.27  -0.17     0.07   0.19   0.16
   6   6     0.07  -0.07  -0.01     0.02  -0.09  -0.24    -0.13   0.05   0.05
   7   6     0.06  -0.06   0.08     0.03   0.07  -0.11    -0.06   0.14  -0.22
   8   6     0.13  -0.01  -0.03    -0.33   0.08   0.22    -0.24   0.03   0.09
   9   6    -0.04   0.03   0.03     0.10  -0.05   0.03     0.03  -0.01   0.05
  10   6     0.08  -0.00  -0.07     0.05  -0.01   0.03     0.11  -0.04  -0.01
  11   6     0.01   0.05   0.02    -0.07  -0.04  -0.05    -0.07  -0.06  -0.03
  12   1     0.26   0.06  -0.26    -0.11   0.06  -0.08     0.28  -0.05  -0.08
  13   1    -0.05   0.14   0.22    -0.04  -0.08  -0.08     0.00   0.13   0.25
  14   1    -0.27  -0.20  -0.19    -0.02  -0.02  -0.04    -0.18  -0.13  -0.08
  15   1    -0.04   0.05   0.09     0.02   0.09   0.04    -0.05  -0.03   0.09
  16   1    -0.07   0.09   0.03     0.01   0.08   0.03    -0.11  -0.08  -0.04
  17   1     0.03   0.07   0.06     0.06   0.01   0.07     0.20  -0.04   0.01
  18   1     0.01   0.03   0.02     0.05   0.02   0.04     0.11  -0.04  -0.20
  19   1    -0.03   0.05  -0.07    -0.07   0.04   0.06     0.04  -0.04   0.05
  20   1    -0.01  -0.04  -0.02     0.08   0.03   0.09    -0.01   0.06  -0.00
  21   1    -0.08  -0.13  -0.10     0.01  -0.11  -0.11     0.06   0.09   0.10
  22   1    -0.01  -0.15   0.05     0.06  -0.13  -0.01     0.01   0.11  -0.02
  23   1     0.03   0.01   0.03    -0.01  -0.01  -0.04    -0.07  -0.01  -0.01
  24   1     0.05  -0.00  -0.05     0.03  -0.02  -0.09    -0.07  -0.01   0.06
  25   1     0.02  -0.05   0.03     0.07   0.10  -0.01    -0.03   0.16  -0.10
  26   1     0.01   0.00   0.05     0.02  -0.01  -0.08     0.04  -0.02  -0.16
  27   1     0.08  -0.02   0.01    -0.24   0.06  -0.01    -0.15   0.01  -0.01
  28   1     0.05   0.01  -0.06    -0.13   0.02   0.23    -0.09  -0.01   0.11
  29   1    -0.08   0.03  -0.02     0.11  -0.09   0.05     0.02  -0.04   0.03
  30   1    -0.02   0.01   0.08     0.05   0.02  -0.11     0.03   0.03  -0.02
  31   1     0.06  -0.02  -0.01     0.02   0.00   0.01     0.06  -0.02   0.01
  32   1     0.02  -0.00  -0.06     0.02   0.01   0.01     0.04  -0.00  -0.04
  33   1    -0.04  -0.11  -0.19    -0.00   0.03   0.12    -0.05  -0.10  -0.08
  34   1     0.22   0.08   0.08    -0.17  -0.05  -0.06     0.06   0.00   0.02
  35   1    -0.19   0.08   0.16     0.09  -0.03  -0.12    -0.11   0.04   0.03
                     13                     14                     15
                        a                      a                      a 
 Frequencies --   260.3335               293.3687               328.3576
 Red. masses --    99.0000                99.0000                99.0000
 Frc consts  --    99.0000                99.0000                99.0000
 IR Inten    --    99.0000                99.0000                99.0000
 Raman Activ --     0.0000                 0.0000                 0.0000
 Depolar     --     0.0000                 0.0000                 0.0000
 Atom AN      X      Y      Z        X      Y      Z        X      Y      Z
   1   6     0.01   0.13   0.03    -0.06  -0.22  -0.17    -0.02  -0.28  -0.04
   2   6    -0.03   0.05  -0.09     0.20   0.05   0.26     0.12  -0.11   0.18
   3   6    -0.18   0.05  -0.02     0.07   0.13   0.23     0.17   0.01   0.02
   4   6    -0.12   0.02  -0.03     0.03  -0.14  -0.35    -0.15   0.06   0.08
   5   6    -0.14  -0.11   0.05    -0.03   0.19   0.15    -0.07   0.19  -0.24
   6   6    -0.14  -0.43   0.09    -0.06   0.03   0.16    -0.18  -0.08  -0.26
   7   6     0.10   0.08  -0.23    -0.01   0.07  -0.11    -0.26  -0.07   0.14
   8   6     0.12  -0.06  -0.00    -0.05   0.00  -0.01     0.07  -0.06  -0.08
   9   6     0.22   0.07   0.23    -0.02  -0.01  -0.02     0.13   0.09   0.14
  10   6     0.24   0.16   0.13    -0.00  -0.04  -0.00     0.14   0.17   0.11
  11   6    -0.05   0.05  -0.11    -0.02  -0.05   0.00     0.00   0.11  -0.06
  12   1    -0.04   0.01   0.06    -0.11   0.04  -0.13    -0.04  -0.02  -0.08
  13   1     0.01   0.03  -0.04    -0.02  -0.18  -0.11    -0.01  -0.14  -0.01
  14   1     0.05   0.09   0.04     0.01  -0.13  -0.04    -0.02  -0.13  -0.02
  15   1    -0.00  -0.01  -0.06     0.07   0.05   0.03     0.03  -0.00   0.07
  16   1     0.02   0.02  -0.01     0.09   0.05   0.09     0.01  -0.04   0.04
  17   1    -0.09   0.01  -0.03    -0.02   0.11   0.04     0.13  -0.02   0.05
  18   1    -0.06   0.01   0.04     0.01   0.07   0.12     0.08   0.07  -0.08
  19   1    -0.04   0.01  -0.01     0.18   0.03  -0.29    -0.10   0.01   0.08
  20   1    -0.04   0.01  -0.01    -0.15  -0.23  -0.20     0.02   0.08   0.06
  21   1    -0.08   0.00   0.07     0.02   0.10   0.11     0.04   0.10   0.00
  22   1    -0.02  -0.01  -0.03    -0.07   0.13  -0.01     0.01   0.11  -0.16
  23   1    -0.15  -0.19  -0.08    -0.05  -0.01   0.02    -0.02  -0.07  -0.14
  24   1     0.00  -0.23   0.13    -0.04  -0.01   0.09    -0.04  -0.07  -0.02
  25   1    -0.02   0.16  -0.13    -0.04   0.09  -0.07    -0.04  -0.18   0.09
  26   1     0.16  -0.04  -0.16     0.04  -0.02  -0.09    -0.16   0.05   0.16
  27   1     0.03  -0.07   0.01    -0.04  -0.01  -0.01     0.11  -0.03   0.02
  28   1     0.03  -0.05  -0.02    -0.02   0.00   0.02     0.02  -0.08  -0.12
  29   1     0.05   0.04   0.06     0.00  -0.01  -0.00     0.02   0.06   0.03
  30   1     0.06   0.01   0.07    -0.00   0.00  -0.01     0.03   0.02   0.06
  31   1     0.10   0.07   0.04     0.00  -0.02   0.00     0.05   0.07   0.03
  32   1     0.08   0.08   0.01    -0.00  -0.01  -0.01     0.05   0.07   0.03
  33   1    -0.04  -0.06  -0.06    -0.01  -0.02  -0.00    -0.01   0.00  -0.02
  34   1    -0.00  -0.02  -0.02    -0.00  -0.01   0.00    -0.01   0.00  -0.02
  35   1    -0.07   0.09  -0.07    -0.01  -0.01   0.00    -0.01   0.07  -0.05
                     16                     17                     18
                        a                      a                      a 
 Frequencies --   419.4576               400.6560               519.5542
 Red. masses --    99.0000                99.0000                99.0000
 Frc consts  --    99.0000                99.0000                99.0000
 IR Inten    --    99.0000                99.0000                99.0000
 Raman Activ --     0.0000                 0.0000                 0.0000
 Depolar     --     0.0000                 0.0000                 0.0000
 Atom AN      X      Y      Z        X      Y      Z        X      Y      Z
   1   6     0.01   0.27   0.00    -0.00  -0.03  -0.00     0.00   0.10  -0.01
   2   6    -0.06   0.13  -0.13     0.01  -0.01   0.01     0.04   0.07  -0.00
   3   6     0.06  -0.13   0.09    -0.00   0.01  -0.01     0.05  -0.09   0.11
   4   6     0.26  -0.26  -0.07    -0.03   0.02   0.00    -0.39  -0.18   0.08
   5   6     0.18  -0.11   0.14    -0.02   0.03   0.00    -0.19   0.14  -0.08
   6   6    -0.14   0.00  -0.05    -0.02   0.02  -0.00     0.25   0.04   0.11
   7   6    -0.29  -0.23   0.01    -0.02  -0.14  -0.10     0.27  -0.36  -0.11
   8   6    -0.22  -0.09  -0.14     0.01  -0.33   0.25    -0.12  -0.04  -0.15
   9   6     0.07   0.10   0.10    -0.01  -0.29   0.12    -0.01   0.10  -0.01
  10   6     0.13   0.16   0.09    -0.13   0.21  -0.29     0.06   0.05   0.07
  11   6     0.01   0.13  -0.05     0.18   0.47   0.01    -0.00   0.03  -0.02
  12   1     0.03   0.02   0.05    -0.00  -0.00  -0.01    -0.00   0.02   0.01
  13   1     0.01   0.13   0.01    -0.00  -0.01  -0.00     0.00   0.03  -0.00
  14   1     0.00   0.12   0.01    -0.00  -0.01  -0.00     0.00   0.05   0.00
  15   1    -0.01   0.05  -0.03     0.00  -0.00   0.00     0.01   0.05  -0.01
  16   1    -0.01   0.05  -0.03     0.00  -0.01   0.00     0.03   0.04   0.01
  17   1    -0.02  -0.02   0.00     0.01   0.00   0.00     0.13  -0.11   0.10
  18   1     0.00  -0.10   0.06     0.00   0.01  -0.01     0.06   0.05  -0.11
  19   1     0.19  -0.04  -0.13    -0.01   0.00   0.00    -0.14  -0.03   0.02
  20   1    -0.02  -0.19  -0.08    -0.01   0.01   0.00    -0.07  -0.05   0.05
  21   1     0.09  -0.03   0.04    -0.00   0.01   0.01     0.03   0.10   0.07
  22   1     0.04  -0.01   0.02    -0.01   0.01  -0.00    -0.15   0.14  -0.08
  23   1    -0.01   0.04   0.04     0.01   0.02   0.02     0.21   0.06   0.10
  24   1    -0.11   0.06  -0.04    -0.03   0.03  -0.02     0.01   0.11  -0.06
  25   1    -0.06  -0.21   0.05    -0.01   0.06  -0.05     0.04  -0.09  -0.05
  26   1    -0.16   0.00   0.12    -0.01  -0.10  -0.13     0.12  -0.09  -0.02
  27   1    -0.07  -0.03  -0.04    -0.04  -0.12   0.06    -0.19  -0.02  -0.11
  28   1    -0.08  -0.06  -0.03    -0.01  -0.11   0.09    -0.03   0.07   0.12
  29   1     0.03   0.05   0.03    -0.02  -0.15   0.04    -0.00   0.07  -0.01
  30   1     0.04   0.07   0.02    -0.02  -0.14   0.01     0.01   0.07   0.02
  31   1     0.05   0.07   0.03    -0.02   0.08  -0.08     0.02   0.02   0.02
  32   1     0.04   0.06   0.02    -0.03   0.08  -0.07     0.02   0.02   0.01
  33   1    -0.01   0.01  -0.02     0.09   0.24   0.02    -0.01  -0.01  -0.01
  34   1    -0.00   0.02  -0.01     0.09   0.24   0.01    -0.01  -0.01  -0.01
  35   1    -0.01   0.07  -0.04     0.10   0.00   0.13    -0.01   0.03  -0.03
                     19                     20                     21
                        a                      a                      a 
 Frequencies --   478.4892               746.0705               768.7317
 Red. masses --    99.0000                99.0000                99.0000
 Frc consts  --    99.0000                99.0000                99.0000
 IR Inten    --    99.0000                99.0000                99.0000
 Raman Activ --     0.0000                 0.0000                 0.0000
 Depolar     --     0.0000                 0.0000                 0.0000
 Atom AN      X      Y      Z        X      Y      Z        X      Y      Z
   1   6     0.00   0.27  -0.01    -0.00   0.03  -0.00     0.01   0.03  -0.01
   2   6     0.02   0.15  -0.08     0.07   0.03   0.03     0.11   0.02  -0.01
   3   6     0.18  -0.22   0.17     0.09   0.00  -0.07     0.12  -0.02  -0.06
   4   6    -0.18  -0.38   0.07     0.06  -0.10  -0.11     0.01  -0.09  -0.06
   5   6    -0.07   0.02  -0.12    -0.02  -0.14  -0.09    -0.05  -0.05   0.01
   6   6    -0.10   0.03  -0.14    -0.04  -0.13   0.09    -0.04   0.04   0.02
   7   6    -0.05   0.33   0.08    -0.10  -0.05   0.11     0.03   0.08  -0.05
   8   6     0.22   0.05   0.16    -0.08   0.04   0.06     0.12  -0.03  -0.05
   9   6    -0.02  -0.11  -0.03    -0.05   0.05  -0.02     0.12  -0.06  -0.04
  10   6    -0.09  -0.09  -0.09     0.01   0.01   0.02     0.05  -0.03  -0.07
  11   6     0.00  -0.06   0.03     0.00  -0.00   0.00     0.00  -0.01  -0.01
  12   1     0.02   0.03   0.05    -0.02   0.02  -0.01    -0.03   0.02   0.00
  13   1     0.00   0.11   0.01    -0.01  -0.04   0.03    -0.02  -0.07   0.07
  14   1     0.00   0.13   0.00    -0.04   0.03  -0.02    -0.07   0.07  -0.03
  15   1     0.01   0.09  -0.02    -0.01   0.05   0.18    -0.01   0.04   0.26
  16   1     0.01   0.07  -0.02    -0.13  -0.01  -0.07    -0.21  -0.00  -0.12
  17   1     0.14  -0.13   0.10    -0.18   0.05  -0.13    -0.20   0.02  -0.15
  18   1     0.08  -0.03  -0.07    -0.03   0.01   0.21    -0.03   0.03   0.25
  19   1    -0.02  -0.06  -0.05    -0.15  -0.04   0.10    -0.11  -0.04   0.07
  20   1    -0.07  -0.18   0.01     0.12   0.14   0.04     0.06   0.11   0.02
  21   1     0.13   0.06   0.04     0.08   0.13   0.24     0.04   0.03   0.08
  22   1    -0.06   0.11  -0.13    -0.00   0.17  -0.28    -0.08   0.07  -0.05
  23   1    -0.09  -0.05  -0.12     0.09   0.15   0.28    -0.10   0.00  -0.01
  24   1     0.06  -0.09   0.03    -0.01   0.16  -0.25     0.02  -0.03   0.04
  25   1     0.01   0.13   0.03    -0.04   0.20  -0.03    -0.00  -0.11   0.01
  26   1    -0.03   0.06  -0.02     0.12  -0.10  -0.11    -0.07   0.07   0.07
  27   1     0.16   0.02   0.09     0.20  -0.03   0.12    -0.20   0.10  -0.13
  28   1     0.07  -0.02  -0.07     0.02   0.02  -0.22    -0.03  -0.06   0.27
  29   1    -0.01  -0.06  -0.01     0.11  -0.07   0.05    -0.28   0.11  -0.14
  30   1    -0.02  -0.08  -0.01     0.02   0.07  -0.16    -0.01  -0.04   0.35
  31   1    -0.04  -0.04  -0.03     0.05  -0.00   0.02    -0.22   0.04  -0.10
  32   1    -0.03  -0.03  -0.01    -0.00  -0.02  -0.04     0.01   0.03   0.24
  33   1     0.01   0.01   0.02    -0.00  -0.01  -0.01    -0.02  -0.05   0.07
  34   1     0.01   0.01   0.01     0.00  -0.01   0.00    -0.04   0.09  -0.02
  35   1     0.01  -0.05   0.04    -0.00   0.01  -0.01    -0.02  -0.01   0.02
                     22                     23                     24
                        a                      a                      a 
 Frequencies --   812.3198               783.9904              1506.0567
 Red. masses --    99.0000                99.0000                99.0000
 Frc consts  --    99.0000                99.0000                99.0000
 IR Inten    --    99.0000                99.0000                99.0000
 Raman Activ --     0.0000                 0.0000                 0.0000
 Depolar     --     0.0000                 0.0000                 0.0000
 Atom AN      X      Y      Z        X      Y      Z        X      Y      Z
   1   6     0.04  -0.03  -0.03    -0.02  -0.02   0.02     0.17  -0.01  -0.10
   2   6     0.10  -0.04  -0.14    -0.13  -0.00   0.06     0.02  -0.00  -0.04
   3   6     0.02  -0.04   0.11    -0.09   0.04   0.00     0.02   0.00   0.05
   4   6    -0.05   0.10   0.11     0.05   0.04  -0.00    -0.00   0.00   0.00
   5   6    -0.02   0.19  -0.07     0.05  -0.07  -0.02     0.01  -0.00   0.02
   6   6     0.06  -0.00  -0.01    -0.05  -0.12  -0.01     0.00  -0.00   0.02
   7   6    -0.03  -0.12   0.08    -0.08  -0.02   0.08     0.00   0.00  -0.00
   8   6    -0.15   0.00   0.06    -0.02   0.03   0.06     0.00  -0.00   0.01
   9   6    -0.04   0.05  -0.04     0.08   0.00  -0.08    -0.00   0.01  -0.01
  10   6     0.15  -0.02  -0.04     0.13  -0.04  -0.08    -0.00  -0.01  -0.02
  11   6     0.04   0.01  -0.02     0.02  -0.01  -0.01     0.02  -0.03  -0.05
  12   1    -0.05  -0.05   0.07     0.04   0.00  -0.03    -0.60   0.02   0.29
  13   1    -0.02  -0.12   0.13     0.02   0.10  -0.10     0.02   0.40   0.21
  14   1    -0.11   0.18  -0.05     0.09  -0.13   0.04    -0.13  -0.38  -0.11
  15   1    -0.02  -0.07   0.23     0.02  -0.01  -0.29    -0.01  -0.03   0.08
  16   1    -0.22   0.06  -0.16     0.25  -0.02   0.15     0.06   0.02   0.02
  17   1    -0.02  -0.14   0.01     0.15   0.05   0.10    -0.10   0.03  -0.06
  18   1     0.01   0.05   0.05     0.02  -0.05  -0.20     0.03  -0.02  -0.12
  19   1     0.13   0.06  -0.11     0.03   0.01  -0.01    -0.00  -0.01   0.01
  20   1    -0.09  -0.16  -0.03     0.01  -0.01  -0.01    -0.00  -0.01   0.00
  21   1    -0.09  -0.07  -0.21     0.02   0.05   0.10    -0.02  -0.02  -0.04
  22   1     0.05  -0.12   0.15     0.08   0.04  -0.12    -0.01   0.04  -0.04
  23   1     0.13  -0.07  -0.10     0.07   0.08   0.16    -0.01  -0.02  -0.03
  24   1    -0.03  -0.03   0.07    -0.02   0.09  -0.17    -0.00   0.02  -0.03
  25   1    -0.01   0.16  -0.02    -0.02   0.15  -0.01     0.00   0.00  -0.00
  26   1     0.10  -0.12  -0.11     0.08  -0.07  -0.08    -0.00   0.00   0.00
  27   1     0.16  -0.05   0.11     0.06   0.08   0.03    -0.01   0.01  -0.01
  28   1     0.01   0.02  -0.20    -0.02  -0.04  -0.02     0.00   0.00  -0.02
  29   1    -0.02  -0.08   0.00    -0.22   0.02  -0.11     0.02  -0.01   0.01
  30   1     0.04   0.12  -0.04     0.03   0.09   0.23    -0.00  -0.00   0.03
  31   1    -0.18   0.11  -0.09    -0.30   0.09  -0.14     0.02   0.00   0.00
  32   1     0.01  -0.04   0.24     0.02   0.00   0.34     0.00  -0.00   0.02
  33   1    -0.05  -0.14   0.12    -0.05  -0.12   0.13     0.05   0.12   0.13
  34   1    -0.07   0.15  -0.05    -0.08   0.15  -0.04     0.01  -0.10   0.01
  35   1    -0.06   0.05   0.01    -0.05   0.02   0.03    -0.15   0.08   0.07
                     25                     26                     27
                        a                      a                      a 
 Frequencies --   842.6859               861.0900              1509.3881
 Red. masses --    99.0000                99.0000                99.0000
 Frc consts  --    99.0000                99.0000                99.0000
 IR Inten    --    99.0000                99.0000                99.0000
 Raman Activ --     0.0000                 0.0000                 0.0000
 Depolar     --     0.0000                 0.0000                 0.0000
 Atom AN      X      Y      Z        X      Y      Z        X      Y      Z
   1   6    -0.05   0.10   0.01    -0.02  -0.02  -0.02     0.05   0.07   0.15
   2   6    -0.03   0.05   0.16    -0.04  -0.03  -0.04     0.03   0.03   0.07
   3   6     0.07  -0.11  -0.06     0.10  -0.12   0.14     0.01  -0.02   0.04
   4   6     0.07  -0.20  -0.19     0.16   0.04  -0.06     0.00  -0.00   0.01
   5   6    -0.02   0.07  -0.12    -0.07   0.15  -0.25     0.01  -0.00   0.02
   6   6     0.16   0.16   0.22    -0.03   0.00   0.15     0.01  -0.01   0.04
   7   6    -0.06   0.04   0.02    -0.18  -0.08   0.21     0.00   0.00   0.00
   8   6    -0.18  -0.07  -0.08     0.04  -0.06  -0.01    -0.00  -0.01   0.00
   9   6    -0.07  -0.01   0.04     0.10  -0.00  -0.18    -0.03   0.02  -0.05
  10   6     0.09  -0.02  -0.02    -0.05   0.05   0.10    -0.03  -0.01  -0.03
  11   6     0.04   0.02  -0.03    -0.05   0.05   0.05    -0.06  -0.04  -0.08
  12   1     0.03   0.07  -0.07     0.04  -0.06   0.04     0.16  -0.17   0.15
  13   1     0.01   0.11  -0.10     0.00   0.08  -0.02     0.07  -0.11  -0.53
  14   1     0.07  -0.12   0.03     0.03   0.01   0.01    -0.45  -0.02  -0.22
  15   1     0.02   0.10  -0.09    -0.00   0.04  -0.03     0.02  -0.02  -0.07
  16   1     0.12  -0.04   0.10     0.02  -0.00   0.01    -0.07  -0.02  -0.03
  17   1    -0.05   0.09  -0.05    -0.01  -0.02   0.02    -0.11   0.01  -0.06
  18   1    -0.01  -0.06   0.08     0.01  -0.07   0.08     0.03   0.01  -0.12
  19   1    -0.21  -0.13   0.19    -0.00   0.02   0.01     0.01   0.01  -0.01
  20   1     0.22   0.19   0.08     0.12  -0.00   0.03     0.01   0.01   0.00
  21   1     0.01  -0.06  -0.16    -0.09  -0.03  -0.18    -0.02  -0.02  -0.03
  22   1    -0.19  -0.02   0.14    -0.03  -0.06   0.06    -0.00   0.03  -0.03
  23   1    -0.02  -0.12  -0.17     0.13  -0.05  -0.03    -0.03  -0.05  -0.07
  24   1     0.04  -0.12   0.28    -0.03  -0.01   0.06    -0.01   0.05  -0.07
  25   1    -0.06   0.01  -0.02    -0.14   0.28  -0.07     0.00   0.00   0.00
  26   1    -0.02   0.00  -0.01     0.14  -0.17  -0.18    -0.00   0.00  -0.00
  27   1     0.05  -0.12   0.03    -0.03   0.19  -0.05    -0.02   0.01  -0.01
  28   1    -0.02  -0.00  -0.16    -0.04  -0.10   0.11     0.00   0.01  -0.02
  29   1     0.06  -0.08   0.05    -0.14   0.17  -0.13     0.13  -0.06   0.06
  30   1     0.02   0.06  -0.10    -0.02  -0.05   0.18    -0.01   0.01   0.16
  31   1    -0.07   0.10  -0.05     0.08  -0.17   0.08     0.04  -0.00   0.01
  32   1    -0.00  -0.05   0.12     0.03   0.12  -0.13    -0.00   0.01   0.04
  33   1    -0.03  -0.09   0.08     0.04   0.14  -0.15     0.02   0.08   0.30
  34   1    -0.05   0.12  -0.04     0.06  -0.23   0.06     0.27  -0.05   0.09
  35   1    -0.04   0.04   0.02     0.06   0.02  -0.09    -0.06   0.11  -0.09
                     28                     29                     30
                        a                      a                      a 
 Frequencies --  1505.4962               941.5553              1507.9025
 Red. masses --    99.0000                99.0000                99.0000
 Frc consts  --    99.0000                99.0000                99.0000
 IR Inten    --    99.0000                99.0000                99.0000
 Raman Activ --     0.0000                 0.0000                 0.0000
 Depolar     --     0.0000                 0.0000                 0.0000
 Atom AN      X      Y      Z        X      Y      Z        X      Y      Z
   1   6     0.04   0.00  -0.02    -0.06  -0.08   0.02     0.07   0.05   0.07
   2   6     0.01  -0.00   0.00    -0.02  -0.01  -0.08     0.03   0.01   0.06
   3   6     0.01  -0.00   0.02     0.06   0.13  -0.03     0.01  -0.02   0.03
   4   6    -0.00  -0.00   0.00    -0.17   0.03   0.10     0.01   0.01  -0.00
   5   6     0.01   0.00   0.03     0.08  -0.12   0.12    -0.02   0.00  -0.05
   6   6     0.02  -0.00   0.04     0.28   0.03  -0.02    -0.03   0.01  -0.06
   7   6     0.01  -0.01   0.00     0.01   0.18   0.01     0.01  -0.01  -0.01
   8   6     0.04  -0.03   0.07    -0.29  -0.11  -0.07     0.02   0.00   0.05
   9   6    -0.03   0.01  -0.06    -0.00  -0.18  -0.13     0.03  -0.02   0.06
  10   6     0.01   0.01   0.08     0.10  -0.02   0.10     0.07   0.00   0.08
  11   6    -0.12   0.07   0.12    -0.02   0.20   0.06     0.12   0.04   0.09
  12   1    -0.12  -0.00   0.07     0.07  -0.07   0.02    -0.02  -0.10   0.15
  13   1     0.01   0.08   0.02     0.01   0.12  -0.06     0.04   0.00  -0.28
  14   1    -0.04  -0.08  -0.03     0.07  -0.08   0.04    -0.29  -0.09  -0.15
  15   1     0.00  -0.01  -0.01    -0.00   0.11   0.00     0.02   0.00  -0.10
  16   1    -0.01   0.00  -0.01    -0.02  -0.12  -0.04    -0.09  -0.00  -0.04
  17   1    -0.04   0.01  -0.02    -0.07  -0.04  -0.06    -0.07   0.02  -0.04
  18   1     0.01  -0.00  -0.05     0.00   0.12   0.08     0.02   0.01  -0.09
  19   1    -0.00   0.00  -0.00    -0.01   0.08  -0.07    -0.02  -0.00   0.02
  20   1     0.00   0.00   0.00    -0.13  -0.05  -0.03    -0.01  -0.02  -0.01
  21   1    -0.02  -0.03  -0.05     0.10   0.01   0.09     0.05   0.06   0.09
  22   1     0.01   0.04  -0.05    -0.00   0.04  -0.03     0.03  -0.08   0.08
  23   1    -0.05  -0.06  -0.08    -0.02  -0.02  -0.04     0.08   0.08   0.10
  24   1    -0.01   0.07  -0.08     0.18  -0.07   0.03     0.02  -0.09   0.11
  25   1    -0.00   0.03  -0.01     0.09   0.02   0.06    -0.01   0.03  -0.01
  26   1    -0.01   0.01   0.02    -0.06   0.06   0.03    -0.02   0.01   0.02
  27   1    -0.18   0.08  -0.09     0.09  -0.08   0.06    -0.09   0.03  -0.04
  28   1     0.03  -0.00  -0.21    -0.07  -0.09  -0.21     0.01  -0.01  -0.10
  29   1     0.15  -0.08   0.07    -0.17  -0.13  -0.08    -0.15   0.07  -0.07
  30   1    -0.00   0.03   0.18     0.04   0.07   0.10     0.01  -0.02  -0.18
  31   1    -0.16   0.03  -0.05    -0.07  -0.20   0.02    -0.14   0.04  -0.05
  32   1    -0.00   0.00  -0.19     0.08   0.14   0.05     0.01  -0.02  -0.14
  33   1    -0.15  -0.36  -0.21     0.02   0.09  -0.14     0.01  -0.03  -0.40
  34   1     0.16   0.29   0.04     0.02  -0.22   0.04    -0.45  -0.00  -0.16
  35   1     0.47  -0.20  -0.29     0.03   0.15  -0.17    -0.02  -0.12   0.22
                     31                     32                     33
                        a                      a                      a 
 Frequencies --   969.1678               895.0253              1039.0632
 Red. masses --    99.0000                99.0000                99.0000
 Frc consts  --    99.0000                99.0000                99.0000
 IR Inten    --    99.0000                99.0000                99.0000
 Raman Activ --     0.0000                 0.0000                 0.0000
 Depolar     --     0.0000                 0.0000                 0.0000
 Atom AN      X      Y      Z        X      Y      Z        X      Y      Z
   1   6     0.02  -0.08  -0.09    -0.12  -0.16  -0.02    -0.09  -0.10   0.01
   2   6    -0.04  -0.01  -0.00    -0.16  -0.10  -0.18     0.09   0.05  -0.06
   3   6     0.02   0.01   0.10     0.32  -0.07   0.26    -0.11   0.18  -0.05
   4   6     0.03  -0.07  -0.16     0.08   0.22   0.02    -0.05  -0.14  -0.01
   5   6    -0.03   0.04   0.13    -0.22   0.05  -0.05     0.24   0.06  -0.20
   6   6    -0.12   0.03  -0.12    -0.06  -0.01  -0.02    -0.20  -0.10   0.22
   7   6     0.12  -0.19  -0.15     0.10  -0.01  -0.07    -0.02   0.02  -0.09
   8   6    -0.02   0.14   0.21     0.06   0.04   0.00     0.11   0.18   0.01
   9   6     0.11   0.09  -0.02    -0.04   0.02   0.08    -0.02  -0.10   0.10
  10   6     0.03   0.01  -0.10    -0.00  -0.01  -0.04     0.01  -0.03  -0.05
  11   6    -0.13  -0.08   0.07     0.02  -0.04  -0.03     0.02   0.06   0.05
  12   1     0.02  -0.14   0.13     0.18  -0.25   0.15     0.08  -0.10   0.05
  13   1    -0.01   0.01   0.07     0.02   0.31  -0.10     0.00   0.14  -0.06
  14   1    -0.04   0.17  -0.02     0.13  -0.04   0.08     0.07  -0.06   0.05
  15   1    -0.01  -0.04  -0.04    -0.02   0.21  -0.11     0.01   0.16   0.09
  16   1     0.03   0.18   0.03     0.03  -0.12  -0.02    -0.06  -0.08  -0.06
  17   1     0.05   0.18   0.05    -0.11  -0.02  -0.04     0.03  -0.13   0.02
  18   1     0.01  -0.04  -0.01     0.03  -0.07   0.28     0.02   0.30  -0.08
  19   1    -0.12  -0.06   0.09     0.01   0.16  -0.11    -0.02  -0.06   0.03
  20   1     0.08   0.16   0.01    -0.04   0.01  -0.04     0.16  -0.17   0.11
  21   1    -0.02  -0.02  -0.01    -0.11   0.04   0.03     0.03  -0.05  -0.16
  22   1    -0.10   0.01   0.10    -0.04   0.04  -0.05     0.08  -0.07   0.03
  23   1    -0.05  -0.01  -0.05    -0.02   0.02   0.03     0.05   0.03   0.13
  24   1    -0.18   0.02   0.05    -0.00   0.02  -0.05    -0.21   0.09   0.02
  25   1     0.14  -0.10   0.04     0.02  -0.10  -0.00    -0.17  -0.13  -0.09
  26   1    -0.05  -0.02   0.01    -0.01   0.05   0.06     0.13   0.11   0.13
  27   1     0.13  -0.08   0.13    -0.03  -0.06  -0.01    -0.06  -0.08  -0.02
  28   1     0.06   0.13  -0.12     0.03   0.07   0.03     0.05   0.12   0.05
  29   1    -0.12  -0.15  -0.03     0.08  -0.04   0.06    -0.04  -0.20   0.04
  30   1     0.10   0.21   0.07    -0.01  -0.01  -0.08     0.00  -0.01  -0.00
  31   1    -0.13  -0.15  -0.05    -0.00   0.08  -0.02    -0.06  -0.08  -0.03
  32   1     0.09   0.23   0.05    -0.03  -0.06   0.02     0.01   0.01   0.03
  33   1     0.05   0.18  -0.11    -0.02  -0.06   0.07    -0.01  -0.02  -0.03
  34   1     0.08  -0.16   0.07    -0.02   0.10  -0.03    -0.01  -0.09   0.02
  35   1     0.08  -0.13   0.03    -0.03  -0.02   0.05    -0.00   0.08  -0.07
                     34                     35                     36
                        a                      a                      a 
 Frequencies --   914.2574              1506.4893              1213.8331
 Red. masses --    99.0000                99.0000                99.0000
 Frc consts  --    99.0000                99.0000                99.0000
 IR Inten    --    99.0000                99.0000                99.0000
 Raman Activ --     0.0000                 0.0000                 0.0000
 Depolar     --     0.0000                 0.0000                 0.0000
 Atom AN      X      Y      Z        X      Y      Z        X      Y      Z
   1   6    -0.07   0.13   0.07    -0.02  -0.01  -0.02    -0.09   0.02   0.10
   2   6     0.04   0.03   0.13     0.00  -0.01   0.01     0.13  -0.03  -0.16
   3   6     0.08  -0.06  -0.21     0.00  -0.00   0.01    -0.09  -0.02   0.15
   4   6    -0.11  -0.08   0.09     0.02   0.01  -0.01     0.05   0.02  -0.07
   5   6    -0.01   0.08   0.17    -0.04   0.02  -0.07    -0.08  -0.07   0.03
   6   6    -0.18   0.03  -0.26    -0.04   0.02  -0.09    -0.04   0.11  -0.01
   7   6     0.09  -0.27  -0.01     0.03  -0.06  -0.01     0.03  -0.05  -0.04
   8   6     0.17   0.04   0.23     0.08  -0.04   0.19    -0.09   0.07   0.15
   9   6    -0.09   0.09  -0.18     0.04   0.02   0.06     0.19  -0.03  -0.18
  10   6     0.06   0.04   0.06    -0.00  -0.04   0.01    -0.22   0.09   0.21
  11   6     0.05   0.04   0.05    -0.04  -0.03  -0.07     0.16  -0.07  -0.15
  12   1     0.02   0.15  -0.15     0.02   0.03  -0.05     0.03   0.04  -0.05
  13   1     0.01   0.10  -0.14    -0.01  -0.01   0.08    -0.00   0.07  -0.08
  14   1     0.09  -0.23   0.04     0.09   0.03   0.05     0.05  -0.13   0.05
  15   1     0.02   0.13   0.02     0.01   0.03  -0.04     0.01  -0.04   0.09
  16   1     0.03  -0.20   0.03    -0.04   0.01  -0.02    -0.08   0.05  -0.09
  17   1    -0.15  -0.04  -0.16    -0.01   0.00  -0.00     0.08   0.09   0.10
  18   1    -0.02   0.03   0.14     0.00   0.00  -0.01     0.00   0.02  -0.05
  19   1     0.08  -0.08   0.02    -0.05  -0.01   0.04     0.09  -0.12   0.08
  20   1    -0.15   0.02  -0.06    -0.03  -0.04  -0.02    -0.09   0.17  -0.08
  21   1     0.03  -0.06  -0.07     0.08   0.09   0.14     0.06  -0.01   0.03
  22   1     0.03  -0.06   0.11     0.08  -0.14   0.12     0.10  -0.00  -0.09
  23   1    -0.00  -0.02  -0.10     0.10   0.12   0.16     0.08  -0.04  -0.11
  24   1    -0.15   0.02  -0.02     0.03  -0.14   0.17     0.09  -0.04   0.01
  25   1     0.10   0.04   0.01    -0.02   0.12  -0.04    -0.21  -0.10  -0.11
  26   1    -0.01  -0.14  -0.11    -0.06   0.06   0.10     0.15   0.05   0.08
  27   1     0.06   0.07   0.06    -0.42   0.15  -0.21     0.01  -0.21   0.09
  28   1     0.08   0.10   0.08     0.08  -0.02  -0.49     0.01   0.07  -0.07
  29   1    -0.02   0.00  -0.05    -0.12   0.03  -0.04    -0.15  -0.05  -0.11
  30   1    -0.03  -0.00  -0.05    -0.00  -0.04  -0.13     0.04   0.01   0.14
  31   1    -0.01  -0.05   0.01    -0.04   0.04  -0.02     0.11  -0.13   0.12
  32   1    -0.00  -0.04   0.02     0.01   0.02  -0.05    -0.03   0.07  -0.17
  33   1    -0.03  -0.09  -0.00     0.02   0.08   0.26    -0.02  -0.14   0.14
  34   1    -0.04  -0.09   0.00     0.22  -0.06   0.08    -0.05   0.21  -0.08
  35   1    -0.03   0.14  -0.11    -0.07   0.10  -0.06    -0.07   0.01   0.07
                     37                     38                     39
                        a                      a                      a 
 Frequencies --   940.5647              1505.0436              1158.7071
 Red. masses --    99.0000                99.0000                99.0000
 Frc consts  --    99.0000                99.0000                99.0000
 IR Inten    --    99.0000                99.0000                99.0000
 Raman Activ --     0.0000                 0.0000                 0.0000
 Depolar     --     0.0000                 0.0000                 0.0000
 Atom AN      X      Y      Z        X      Y      Z        X      Y      Z
   1   6    -0.05   0.11   0.07    -0.05  -0.02   0.00    -0.05   0.04   0.06
   2   6     0.05   0.01   0.07    -0.04   0.00  -0.07     0.06  -0.08  -0.15
   3   6     0.03  -0.07  -0.13     0.01   0.01   0.01    -0.09   0.13   0.16
   4   6    -0.08   0.00   0.10    -0.00  -0.01   0.00     0.18  -0.08  -0.10
   5   6     0.00   0.09   0.00     0.02   0.00   0.05    -0.17   0.03   0.32
   6   6     0.06  -0.09  -0.03     0.04  -0.01   0.12     0.17  -0.09  -0.31
   7   6    -0.02   0.04   0.02     0.00   0.00   0.01    -0.22   0.05   0.10
   8   6    -0.14   0.10  -0.13     0.04  -0.03   0.08     0.17   0.02  -0.11
   9   6     0.25   0.03   0.23    -0.04   0.01  -0.07    -0.10  -0.01   0.09
  10   6    -0.12  -0.03  -0.16     0.08  -0.01   0.08     0.08  -0.03  -0.05
  11   6    -0.17  -0.21  -0.06     0.10  -0.01  -0.03    -0.04   0.02   0.03
  12   1     0.00   0.13  -0.13     0.11   0.02  -0.10     0.01   0.05  -0.05
  13   1     0.01   0.05  -0.10    -0.01  -0.06   0.01     0.00   0.03  -0.05
  14   1     0.06  -0.18   0.03     0.08   0.10   0.05     0.03  -0.10   0.02
  15   1     0.01   0.09   0.04    -0.04  -0.02   0.18    -0.00  -0.03   0.05
  16   1    -0.01  -0.17  -0.01     0.17  -0.01   0.09    -0.08  -0.10  -0.09
  17   1    -0.09  -0.12  -0.09    -0.04  -0.01  -0.02     0.08  -0.05   0.10
  18   1    -0.01   0.04   0.08     0.01  -0.00  -0.04     0.02   0.14  -0.06
  19   1     0.10  -0.02  -0.02    -0.00   0.00  -0.01    -0.03  -0.06   0.08
  20   1    -0.10  -0.06  -0.03     0.00   0.01   0.00     0.16   0.02   0.05
  21   1    -0.04  -0.03  -0.08    -0.05  -0.05  -0.08    -0.13   0.04   0.12
  22   1     0.06  -0.05   0.06    -0.01   0.07  -0.08    -0.19   0.05   0.14
  23   1     0.13  -0.01   0.01    -0.13  -0.16  -0.22     0.22  -0.04  -0.11
  24   1    -0.01   0.02  -0.04    -0.03   0.19  -0.23     0.14  -0.02  -0.14
  25   1    -0.00   0.04   0.00     0.01   0.00   0.01    -0.15   0.08  -0.05
  26   1     0.12   0.04   0.04     0.01  -0.00   0.00    -0.01  -0.05  -0.08
  27   1     0.04   0.01   0.01    -0.20   0.08  -0.10    -0.12  -0.05  -0.10
  28   1    -0.05  -0.05  -0.11     0.04   0.00  -0.23     0.06   0.13   0.10
  29   1     0.01   0.04   0.04     0.21  -0.07   0.09     0.04  -0.12   0.06
  30   1     0.09   0.09   0.13    -0.01   0.03   0.24     0.00   0.05  -0.07
  31   1    -0.02   0.04  -0.04    -0.25   0.08  -0.10    -0.06  -0.02  -0.04
  32   1     0.04   0.18  -0.04     0.00  -0.04  -0.27     0.03   0.04   0.06
  33   1     0.08   0.24  -0.03     0.07   0.16  -0.02     0.01   0.04  -0.04
  34   1     0.11   0.10   0.03    -0.23  -0.17  -0.07     0.01  -0.05   0.02
  35   1     0.09  -0.37   0.25    -0.24   0.05   0.23     0.02  -0.00  -0.02
                     40                     41                     42
                        a                      a                      a 
 Frequencies --  1031.5892              1489.8449              1498.4852
 Red. masses --    99.0000                99.0000                99.0000
 Frc consts  --    99.0000                99.0000                99.0000
 IR Inten    --    99.0000                99.0000                99.0000
 Raman Activ --     0.0000                 0.0000                 0.0000
 Depolar     --     0.0000                 0.0000                 0.0000
 Atom AN      X      Y      Z        X      Y      Z        X      Y      Z
   1   6    -0.05  -0.04  -0.13    -0.00   0.01   0.01     0.00  -0.00   0.02
   2   6     0.03  -0.00   0.12     0.00  -0.00   0.00    -0.04   0.01  -0.07
   3   6     0.01  -0.06  -0.02     0.00   0.01  -0.03     0.00   0.01  -0.00
   4   6    -0.10  -0.10  -0.10     0.16   0.12  -0.04    -0.00  -0.00  -0.00
   5   6     0.02   0.19   0.20     0.02   0.01   0.03     0.01   0.00   0.03
   6   6     0.00  -0.17  -0.20    -0.01   0.01  -0.01     0.01  -0.00   0.04
   7   6     0.06   0.11   0.05    -0.08   0.16   0.04     0.02  -0.04  -0.01
   8   6    -0.10   0.10  -0.17     0.01   0.00   0.03     0.04  -0.03   0.09
   9   6     0.02  -0.25   0.08    -0.01   0.00  -0.01     0.00   0.03  -0.02
  10   6    -0.04  -0.08   0.10    -0.00   0.01  -0.02    -0.12   0.05  -0.18
  11   6     0.06   0.13  -0.07     0.00  -0.00   0.00     0.03  -0.00   0.05
  12   1     0.05  -0.16   0.13    -0.00  -0.01   0.01     0.02  -0.01  -0.00
  13   1    -0.01   0.11   0.03     0.00  -0.00  -0.01     0.01  -0.01  -0.06
  14   1    -0.00   0.16  -0.01    -0.01  -0.01  -0.01    -0.05   0.02  -0.02
  15   1     0.02   0.07   0.02     0.00  -0.02  -0.02    -0.04  -0.03   0.20
  16   1     0.04   0.14   0.06    -0.02   0.02  -0.01     0.18  -0.02   0.09
  17   1    -0.00   0.15  -0.00     0.07  -0.00   0.04    -0.00  -0.01  -0.00
  18   1     0.00   0.06   0.03    -0.01   0.01   0.09    -0.00  -0.00  -0.00
  19   1     0.03  -0.20   0.15    -0.34  -0.10   0.34    -0.00   0.00  -0.00
  20   1    -0.06   0.17  -0.05    -0.27  -0.36  -0.18     0.00  -0.00   0.00
  21   1    -0.11  -0.03  -0.07    -0.04  -0.05  -0.09    -0.02  -0.03  -0.05
  22   1     0.06  -0.08   0.17     0.00   0.06  -0.08     0.00   0.04  -0.05
  23   1     0.16   0.02   0.04     0.02   0.04   0.06    -0.04  -0.05  -0.07
  24   1    -0.11   0.09  -0.15     0.02  -0.05   0.06    -0.01   0.06  -0.07
  25   1     0.14   0.08   0.07     0.07  -0.40   0.14    -0.01   0.09  -0.03
  26   1     0.18   0.08   0.09     0.22  -0.20  -0.31    -0.04   0.04   0.07
  27   1     0.05   0.16  -0.03    -0.07   0.04  -0.04    -0.20   0.08  -0.10
  28   1    -0.08  -0.13  -0.07     0.01   0.01  -0.09     0.04  -0.00  -0.23
  29   1     0.01   0.06   0.01     0.04  -0.01   0.02     0.01  -0.03   0.01
  30   1    -0.05  -0.20   0.07    -0.01  -0.01   0.04    -0.01  -0.01   0.02
  31   1     0.08   0.04   0.05     0.03  -0.02   0.01     0.48  -0.18   0.18
  32   1    -0.04  -0.12  -0.03    -0.00  -0.00   0.04    -0.03  -0.00   0.54
  33   1    -0.02  -0.04   0.03     0.00   0.00  -0.01    -0.00  -0.02  -0.20
  34   1    -0.03   0.08  -0.04    -0.01   0.00  -0.00    -0.17   0.07  -0.06
  35   1    -0.03   0.08  -0.03    -0.00  -0.00   0.01     0.03  -0.05   0.03
                     43                     44                     45
                        a                      a                      a 
 Frequencies --  1492.1438              1499.0988               982.9194
 Red. masses --    99.0000                99.0000                99.0000
 Frc consts  --    99.0000                99.0000                99.0000
 IR Inten    --    99.0000                99.0000                99.0000
 Raman Activ --     0.0000                 0.0000                 0.0000
 Depolar     --     0.0000                 0.0000                 0.0000
 Atom AN      X      Y      Z        X      Y      Z        X      Y      Z
   1   6    -0.02  -0.00  -0.02    -0.04  -0.01  -0.03     0.05   0.21   0.04
   2   6     0.04  -0.01   0.09     0.05  -0.03   0.10     0.04  -0.03   0.11
   3   6     0.02  -0.01   0.07     0.05  -0.02   0.13    -0.00  -0.33   0.03
   4   6    -0.11  -0.08   0.04     0.02   0.01   0.00     0.19   0.14  -0.03
   5   6     0.02  -0.02   0.07     0.01  -0.01   0.10    -0.25   0.16  -0.12
   6   6     0.02   0.00   0.06    -0.02  -0.00  -0.10    -0.06  -0.12   0.05
   7   6    -0.06   0.13   0.05     0.02  -0.04  -0.02     0.13   0.14  -0.11
   8   6     0.03  -0.00   0.06    -0.01  -0.01  -0.01    -0.04   0.05  -0.02
   9   6     0.06  -0.02   0.10    -0.06   0.04  -0.11    -0.05  -0.16   0.01
  10   6    -0.01  -0.01  -0.02    -0.01   0.02  -0.03     0.06  -0.04   0.03
  11   6    -0.00  -0.00  -0.00     0.03  -0.00   0.00     0.02   0.14   0.05
  12   1     0.02   0.01  -0.03     0.04   0.04  -0.07    -0.09   0.21  -0.14
  13   1    -0.01  -0.01   0.06    -0.02  -0.02   0.12    -0.00  -0.12  -0.00
  14   1     0.06   0.02   0.03     0.14   0.05   0.08    -0.04  -0.05  -0.03
  15   1     0.04   0.02  -0.21     0.05   0.02  -0.27     0.01  -0.09   0.02
  16   1    -0.20   0.01  -0.10    -0.25   0.03  -0.12     0.02  -0.02   0.04
  17   1    -0.14   0.02  -0.08    -0.27   0.05  -0.15     0.00  -0.12   0.01
  18   1     0.04   0.01  -0.16     0.08   0.02  -0.30    -0.01  -0.21  -0.00
  19   1     0.22   0.07  -0.23    -0.02  -0.01   0.03     0.12  -0.01   0.00
  20   1     0.18   0.24   0.12    -0.02  -0.03  -0.01     0.05  -0.00  -0.01
  21   1    -0.09  -0.09  -0.13    -0.08  -0.13  -0.20    -0.30   0.06  -0.01
  22   1    -0.01   0.12  -0.14    -0.01   0.16  -0.19     0.04  -0.03  -0.02
  23   1    -0.04  -0.08  -0.11     0.12   0.14   0.20    -0.01   0.06   0.14
  24   1    -0.03   0.09  -0.10     0.02  -0.17   0.21     0.01   0.05  -0.12
  25   1     0.05  -0.34   0.11    -0.02   0.12  -0.05     0.03  -0.14   0.01
  26   1     0.18  -0.17  -0.26    -0.08   0.06   0.09     0.03   0.15   0.15
  27   1    -0.13   0.05  -0.07     0.01   0.01   0.00    -0.02  -0.13   0.01
  28   1     0.02  -0.00  -0.16     0.00   0.00   0.01     0.01   0.05  -0.05
  29   1    -0.22   0.09  -0.09     0.25  -0.11   0.11    -0.08  -0.20   0.00
  30   1     0.02  -0.01  -0.25    -0.03  -0.01   0.28     0.01   0.02   0.01
  31   1     0.05  -0.01   0.02     0.06  -0.03   0.02    -0.07  -0.13  -0.01
  32   1    -0.00   0.00   0.05    -0.00  -0.00   0.08     0.03   0.04   0.05
  33   1     0.00   0.01   0.01     0.02   0.03  -0.06    -0.00   0.01  -0.07
  34   1     0.01   0.00   0.00    -0.10  -0.03  -0.03    -0.01  -0.13   0.02
  35   1    -0.01   0.01  -0.01    -0.05  -0.01   0.07     0.00   0.14  -0.13
                     46                     47                     48
                        a                      a                      a 
 Frequencies --  1488.0105              1499.4140              1226.8902
 Red. masses --    99.0000                99.0000                99.0000
 Frc consts  --    99.0000                99.0000                99.0000
 IR Inten    --    99.0000                99.0000                99.0000
 Raman Activ --     0.0000                 0.0000                 0.0000
 Depolar     --     0.0000                 0.0000                 0.0000
 Atom AN      X      Y      Z        X      Y      Z        X      Y      Z
   1   6     0.01  -0.01   0.00     0.02   0.01  -0.03    -0.16   0.02   0.12
   2   6    -0.04   0.01  -0.08     0.08  -0.02   0.15     0.21  -0.04  -0.17
   3   6    -0.01   0.00   0.01    -0.04  -0.01  -0.08    -0.10  -0.03   0.12
   4   6    -0.09  -0.07   0.02    -0.01  -0.01  -0.01     0.04   0.02   0.01
   5   6    -0.04   0.00  -0.10    -0.03   0.01  -0.12    -0.09  -0.07  -0.08
   6   6    -0.04   0.02  -0.12     0.02   0.00   0.08    -0.01   0.08   0.10
   7   6    -0.05   0.12   0.03    -0.01   0.01   0.01     0.03  -0.04  -0.10
   8   6    -0.01  -0.00   0.00     0.01  -0.01   0.02     0.00   0.01   0.05
   9   6    -0.06   0.02  -0.11    -0.05   0.02  -0.09    -0.12   0.06   0.02
  10   6     0.00   0.02  -0.01    -0.02   0.03  -0.05     0.23  -0.06  -0.10
  11   6     0.00  -0.00   0.01     0.03  -0.01   0.00    -0.18   0.05   0.10
  12   1    -0.01   0.00  -0.00    -0.07   0.00   0.04     0.06   0.03  -0.06
  13   1     0.00   0.01  -0.02    -0.01   0.02   0.09    -0.00   0.13  -0.12
  14   1    -0.02   0.01  -0.01     0.04  -0.07   0.01     0.08  -0.17   0.07
  15   1    -0.04  -0.00   0.22     0.07   0.07  -0.41     0.02  -0.10   0.14
  16   1     0.20  -0.03   0.10    -0.37   0.03  -0.19    -0.10   0.12  -0.11
  17   1    -0.02  -0.00  -0.01     0.20  -0.02   0.12     0.08   0.21   0.10
  18   1     0.00  -0.01  -0.03    -0.05  -0.00   0.22    -0.01  -0.09  -0.06
  19   1     0.20   0.06  -0.19     0.00   0.01  -0.02     0.11  -0.10   0.06
  20   1     0.16   0.21   0.10     0.00   0.03  -0.00    -0.15   0.17  -0.10
  21   1     0.09   0.12   0.19     0.11   0.15   0.24     0.11  -0.01  -0.00
  22   1     0.04  -0.16   0.17     0.06  -0.21   0.22     0.08  -0.01  -0.11
  23   1     0.12   0.16   0.21    -0.11  -0.10  -0.15     0.05  -0.03  -0.05
  24   1     0.02  -0.18   0.23    -0.02   0.13  -0.16    -0.04   0.02   0.06
  25   1     0.05  -0.29   0.09     0.01  -0.02   0.01     0.02  -0.06  -0.01
  26   1     0.16  -0.14  -0.22     0.03  -0.01  -0.01     0.09   0.05   0.07
  27   1    -0.01   0.01  -0.00    -0.05   0.01  -0.02     0.07   0.17   0.02
  28   1     0.00   0.01  -0.01     0.01   0.00  -0.05    -0.08  -0.24   0.01
  29   1     0.26  -0.10   0.11     0.20  -0.08   0.08     0.08   0.06   0.04
  30   1    -0.03  -0.00   0.29    -0.01   0.03   0.23    -0.08  -0.13  -0.08
  31   1     0.01  -0.02   0.00     0.10  -0.04   0.04    -0.05   0.17  -0.08
  32   1    -0.00  -0.01   0.02    -0.01  -0.01   0.11    -0.01  -0.17   0.15
  33   1    -0.00  -0.01  -0.03     0.02   0.03  -0.04     0.02   0.17  -0.13
  34   1    -0.03   0.01  -0.01    -0.09  -0.03  -0.03     0.06  -0.16   0.07
  35   1     0.01  -0.01   0.01    -0.05   0.00   0.07     0.07  -0.05  -0.03
                     49                     50                     51
                        a                      a                      a 
 Frequencies --  1091.8708              1068.5109              1503.1922
 Red. masses --    99.0000                99.0000                99.0000
 Frc consts  --    99.0000                99.0000                99.0000
 IR Inten    --    99.0000                99.0000                99.0000
 Raman Activ --     0.0000                 0.0000                 0.0000
 Depolar     --     0.0000                 0.0000                 0.0000
 Atom AN      X      Y      Z        X      Y      Z        X      Y      Z
   1   6    -0.07   0.18  -0.04    -0.12   0.08  -0.13    -0.02  -0.01  -0.01
   2   6     0.07  -0.24  -0.04     0.14  -0.12   0.14    -0.02  -0.04  -0.02
   3   6    -0.06  -0.01   0.18    -0.10  -0.13   0.04     0.08  -0.00   0.19
   4   6     0.00   0.10  -0.18    -0.07   0.05  -0.13     0.06   0.05  -0.01
   5   6     0.12  -0.03   0.04     0.08   0.09   0.03    -0.03   0.01  -0.14
   6   6    -0.02   0.01   0.03     0.20  -0.13   0.06    -0.01  -0.00   0.09
   7   6     0.04  -0.07  -0.10    -0.12   0.08  -0.14    -0.00   0.02   0.00
   8   6    -0.04   0.08   0.08    -0.00  -0.18   0.19    -0.01   0.01  -0.03
   9   6     0.03  -0.05  -0.04     0.04   0.26  -0.14     0.01  -0.02   0.01
  10   6    -0.01  -0.28   0.23    -0.06   0.22  -0.15    -0.02   0.01  -0.01
  11   6    -0.05   0.19  -0.22     0.05  -0.19   0.14    -0.02   0.00   0.01
  12   1    -0.01   0.09  -0.07     0.05  -0.08   0.06     0.04   0.04  -0.07
  13   1    -0.01   0.07  -0.07    -0.01   0.19  -0.05    -0.01  -0.03   0.07
  14   1     0.01  -0.03  -0.01     0.03   0.08   0.00     0.09   0.06   0.05
  15   1     0.00  -0.07   0.06     0.03   0.09   0.11    -0.01   0.06   0.05
  16   1    -0.05  -0.20  -0.05    -0.01  -0.02   0.01     0.05   0.02   0.03
  17   1     0.06  -0.18   0.09     0.03  -0.12   0.04    -0.42   0.04  -0.24
  18   1     0.03   0.14  -0.05     0.02   0.18  -0.04     0.11   0.02  -0.46
  19   1    -0.19   0.14  -0.06     0.04  -0.11   0.08    -0.11  -0.04   0.12
  20   1     0.19  -0.06   0.08     0.05   0.02   0.02    -0.10  -0.12  -0.07
  21   1    -0.05   0.03   0.06    -0.26   0.04   0.03     0.13   0.18   0.28
  22   1    -0.07   0.03   0.04     0.14  -0.06   0.03     0.02  -0.23   0.26
  23   1    -0.12   0.02   0.04    -0.06   0.04   0.12    -0.02  -0.12  -0.16
  24   1    -0.14   0.03   0.07     0.12  -0.01  -0.06    -0.00   0.12  -0.16
  25   1     0.20  -0.01   0.08     0.06  -0.06   0.04     0.02  -0.04   0.02
  26   1    -0.13  -0.03  -0.04    -0.24   0.02  -0.04     0.01  -0.02  -0.03
  27   1     0.13   0.19   0.06     0.03  -0.05   0.06     0.07  -0.04   0.04
  28   1    -0.01  -0.02  -0.06    -0.05  -0.19   0.03    -0.01  -0.00   0.09
  29   1     0.02   0.15  -0.03    -0.00   0.10  -0.05    -0.05   0.03  -0.02
  30   1     0.01  -0.00   0.05    -0.02   0.01  -0.03     0.02   0.03  -0.05
  31   1     0.06  -0.04   0.08    -0.01   0.04  -0.04     0.04  -0.02   0.02
  32   1    -0.01  -0.11   0.01    -0.04   0.00  -0.06    -0.01  -0.00   0.04
  33   1     0.02   0.13  -0.02    -0.02  -0.12   0.04    -0.01  -0.03  -0.01
  34   1     0.02   0.19  -0.06    -0.02  -0.09   0.03     0.03   0.03   0.01
  35   1     0.00  -0.04   0.05    -0.01   0.00  -0.01     0.04  -0.01  -0.04
                     52                     53                     54
                        a                      a                      a 
 Frequencies --  1150.4705              1153.2749              1089.5190
 Red. masses --    99.0000                99.0000                99.0000
 Frc consts  --    99.0000                99.0000                99.0000
 IR Inten    --    99.0000                99.0000                99.0000
 Raman Activ --     0.0000                 0.0000                 0.0000
 Depolar     --     0.0000                 0.0000                 0.0000
 Atom AN      X      Y      Z        X      Y      Z        X      Y      Z
   1   6    -0.07  -0.02  -0.10    -0.05  -0.03   0.03    -0.10   0.14  -0.23
   2   6     0.14   0.02   0.18     0.12   0.09   0.05     0.10  -0.23   0.24
   3   6    -0.14  -0.03  -0.17    -0.16  -0.26   0.05    -0.01  -0.03  -0.08
   4   6     0.19   0.06   0.13    -0.02   0.22  -0.24    -0.04   0.02   0.07
   5   6    -0.22  -0.14  -0.04     0.14  -0.12   0.11     0.01  -0.03  -0.07
   6   6     0.13   0.15   0.01    -0.23   0.16  -0.13    -0.07   0.09   0.02
   7   6    -0.09  -0.25  -0.11     0.20   0.01   0.30     0.02  -0.00   0.15
   8   6    -0.05   0.33  -0.06    -0.06  -0.17  -0.18     0.09  -0.10  -0.07
   9   6     0.18  -0.11   0.24     0.08   0.10   0.13    -0.11   0.02  -0.01
  10   6    -0.14  -0.05  -0.13    -0.07  -0.03  -0.17     0.11  -0.21   0.14
  11   6     0.08   0.05   0.06     0.03   0.02   0.08    -0.11   0.14  -0.15
  12   1     0.04  -0.10   0.07     0.03  -0.03   0.01     0.03  -0.09   0.08
  13   1    -0.01   0.12  -0.00     0.00   0.06  -0.02    -0.02   0.18  -0.01
  14   1     0.02   0.09   0.00     0.03  -0.03   0.03    -0.01   0.21  -0.04
  15   1     0.03   0.09   0.08     0.02   0.13   0.10     0.03  -0.03   0.05
  16   1     0.01   0.03   0.03    -0.02   0.08  -0.01     0.05  -0.00   0.08
  17   1     0.01  -0.07  -0.02     0.03  -0.26   0.05    -0.00   0.12  -0.02
  18   1    -0.02  -0.01  -0.09    -0.01  -0.01  -0.09     0.00   0.07   0.01
  19   1     0.14   0.00  -0.01    -0.12   0.11  -0.05     0.16  -0.12   0.05
  20   1     0.02  -0.09   0.01     0.02   0.11  -0.04    -0.13   0.05  -0.06
  21   1    -0.02   0.05   0.11     0.09  -0.01   0.05    -0.01   0.00  -0.00
  22   1    -0.10   0.07  -0.10     0.02   0.03  -0.03     0.21  -0.05  -0.11
  23   1    -0.07  -0.04  -0.10    -0.09   0.01  -0.07    -0.11   0.01  -0.01
  24   1     0.12  -0.07   0.08    -0.05  -0.01   0.04     0.20  -0.07  -0.02
  25   1    -0.01  -0.01  -0.04     0.07   0.14   0.05    -0.17   0.03  -0.07
  26   1    -0.11  -0.11  -0.10     0.20  -0.03   0.02    -0.02  -0.06  -0.06
  27   1     0.11   0.23   0.02    -0.09  -0.14  -0.06    -0.12  -0.12  -0.07
  28   1     0.01   0.09  -0.09    -0.01   0.00   0.01     0.08   0.21   0.11
  29   1     0.00  -0.04   0.05     0.05   0.04   0.04     0.03  -0.04   0.03
  30   1     0.01  -0.11   0.11     0.04   0.07  -0.01     0.05   0.18  -0.08
  31   1    -0.03  -0.05  -0.02    -0.08  -0.07  -0.06    -0.03  -0.06   0.02
  32   1    -0.06  -0.08  -0.05    -0.03  -0.04  -0.01     0.06   0.04   0.10
  33   1    -0.02  -0.09  -0.00    -0.01  -0.05  -0.02     0.03   0.18  -0.06
  34   1    -0.04  -0.06   0.00    -0.02  -0.09   0.02     0.05   0.10  -0.02
  35   1    -0.02   0.11  -0.07    -0.01   0.07  -0.06     0.03  -0.08   0.05
                     55                     56                     57
                        a                      a                      a 
 Frequencies --  1114.0064              1244.7554              1095.9366
 Red. masses --    99.0000                99.0000                99.0000
 Frc consts  --    99.0000                99.0000                99.0000
 IR Inten    --    99.0000                99.0000                99.0000
 Raman Activ --     0.0000                 0.0000                 0.0000
 Depolar     --     0.0000                 0.0000                 0.0000
 Atom AN      X      Y      Z        X      Y      Z        X      Y      Z
   1   6    -0.04   0.00  -0.01     0.21   0.00  -0.07    -0.05   0.32  -0.19
   2   6     0.07  -0.01   0.01    -0.25  -0.01   0.04    -0.03  -0.45   0.09
   3   6    -0.08   0.00   0.00     0.03  -0.01   0.06     0.11   0.05   0.12
   4   6     0.09   0.00  -0.02     0.04   0.04  -0.11    -0.11   0.09  -0.02
   5   6    -0.05  -0.02  -0.02    -0.07  -0.11   0.08     0.13  -0.06   0.02
   6   6    -0.13   0.11  -0.02    -0.04   0.20  -0.05    -0.00   0.01   0.01
   7   6     0.16  -0.04   0.10     0.05  -0.10  -0.04    -0.05  -0.01   0.00
   8   6    -0.09   0.01  -0.14    -0.05   0.08   0.11     0.00   0.11  -0.06
   9   6    -0.21  -0.35  -0.15     0.01   0.07  -0.07     0.02  -0.08   0.09
  10   6     0.20   0.37   0.13     0.12   0.01   0.01    -0.04   0.19  -0.15
  11   6    -0.02  -0.23   0.07    -0.11   0.02   0.01     0.07  -0.12   0.16
  12   1     0.02  -0.02   0.01    -0.09   0.03   0.02    -0.05   0.10  -0.05
  13   1    -0.00   0.06  -0.02     0.01  -0.18   0.12    -0.02   0.05  -0.03
  14   1     0.02  -0.00   0.01    -0.10   0.12  -0.08    -0.06   0.14  -0.07
  15   1     0.01   0.05   0.05    -0.03   0.22  -0.13    -0.01  -0.26  -0.04
  16   1    -0.02  -0.03  -0.02     0.08  -0.20   0.07     0.03  -0.18   0.04
  17   1     0.03  -0.07   0.03    -0.02  -0.22  -0.00     0.00   0.12   0.02
  18   1     0.01   0.08  -0.07     0.04   0.31   0.05     0.01  -0.01   0.09
  19   1     0.02  -0.02   0.02     0.09  -0.13   0.09    -0.13   0.15  -0.09
  20   1     0.10  -0.06   0.04     0.05   0.03   0.00    -0.08   0.06  -0.04
  21   1    -0.07   0.02   0.04    -0.08   0.02   0.09     0.22  -0.03  -0.02
  22   1     0.01   0.01  -0.04     0.14   0.00  -0.12    -0.03   0.02   0.01
  23   1    -0.19   0.03   0.01     0.06  -0.05  -0.15     0.12  -0.03  -0.05
  24   1     0.02  -0.01   0.01     0.09  -0.04   0.03    -0.10   0.03   0.04
  25   1     0.12   0.07   0.05    -0.16  -0.09  -0.10    -0.09  -0.00  -0.05
  26   1     0.00  -0.05  -0.03     0.24   0.05   0.10     0.14   0.03   0.05
  27   1     0.03   0.13  -0.03     0.05  -0.03   0.06    -0.01   0.01  -0.02
  28   1     0.03   0.14  -0.05    -0.07  -0.19  -0.03    -0.01  -0.01  -0.01
  29   1    -0.08  -0.08  -0.05    -0.01  -0.01  -0.02    -0.03  -0.11   0.02
  30   1    -0.07  -0.13  -0.02    -0.08  -0.17   0.00    -0.03  -0.10   0.02
  31   1     0.14   0.30   0.04    -0.00   0.08  -0.02    -0.02   0.04  -0.04
  32   1     0.12   0.28   0.02    -0.03  -0.17   0.05    -0.01   0.04  -0.04
  33   1     0.02  -0.01   0.06     0.01   0.10  -0.05    -0.02  -0.13   0.02
  34   1     0.03   0.01   0.03     0.04  -0.05   0.03    -0.03  -0.13   0.03
  35   1     0.02  -0.14   0.11     0.04  -0.06   0.01    -0.01   0.07  -0.06
                     58                     59                     60
                        a                      a                      a 
 Frequencies --  1278.5847              1137.1710              1175.6569
 Red. masses --    99.0000                99.0000                99.0000
 Frc consts  --    99.0000                99.0000                99.0000
 IR Inten    --    99.0000                99.0000                99.0000
 Raman Activ --     0.0000                 0.0000                 0.0000
 Depolar     --     0.0000                 0.0000                 0.0000
 Atom AN      X      Y      Z        X      Y      Z        X      Y      Z
   1   6    -0.13  -0.01   0.03    -0.05   0.07  -0.07    -0.06  -0.02  -0.12
   2   6    -0.04   0.06   0.05     0.02  -0.17  -0.02     0.13   0.03   0.24
   3   6     0.17   0.06  -0.10    -0.01   0.32  -0.06    -0.14  -0.07  -0.20
   4   6    -0.02  -0.06  -0.04     0.25  -0.21   0.21     0.16   0.12   0.09
   5   6    -0.05  -0.08   0.06    -0.27   0.04  -0.07    -0.11  -0.11   0.04
   6   6    -0.01   0.13  -0.02    -0.20   0.06  -0.04     0.05  -0.09  -0.04
   7   6     0.01   0.02  -0.05     0.27   0.06   0.13    -0.07   0.13  -0.09
   8   6     0.04  -0.07   0.01    -0.13  -0.23  -0.03     0.07  -0.07   0.16
   9   6    -0.05  -0.07   0.00     0.10   0.16  -0.02    -0.11   0.05  -0.21
  10   6    -0.07  -0.03  -0.01    -0.09  -0.01  -0.09     0.10   0.03   0.15
  11   6     0.03   0.00   0.03     0.03   0.00   0.02    -0.05  -0.03  -0.08
  12   1     0.03  -0.03   0.01     0.01  -0.00  -0.00     0.04  -0.11   0.08
  13   1    -0.01   0.10  -0.06    -0.01   0.05  -0.02    -0.01   0.11   0.01
  14   1     0.05  -0.07   0.04    -0.00   0.04  -0.01     0.01   0.11  -0.00
  15   1    -0.03  -0.46  -0.08     0.00  -0.09   0.00     0.04   0.07   0.07
  16   1     0.03   0.33   0.06    -0.02  -0.15  -0.03     0.02   0.05   0.06
  17   1    -0.09  -0.24  -0.10     0.04   0.15   0.01    -0.01  -0.16  -0.04
  18   1     0.03   0.14   0.11     0.01   0.12  -0.03    -0.04  -0.12  -0.06
  19   1    -0.05   0.01  -0.01     0.13  -0.08   0.05    -0.02   0.17  -0.11
  20   1     0.12  -0.11   0.07     0.14  -0.19   0.10     0.02  -0.08   0.01
  21   1    -0.20   0.08   0.16    -0.03   0.01  -0.01     0.22  -0.03   0.01
  22   1     0.24  -0.05  -0.12    -0.13   0.03   0.00    -0.32   0.11   0.05
  23   1     0.21  -0.07  -0.15    -0.07   0.02  -0.00     0.31  -0.06  -0.07
  24   1    -0.11   0.00   0.11    -0.04   0.01  -0.01    -0.20   0.06   0.02
  25   1    -0.01  -0.02  -0.01     0.19   0.05   0.10    -0.05  -0.06  -0.02
  26   1     0.08   0.05   0.05     0.13   0.04   0.07     0.12   0.12   0.11
  27   1     0.04   0.15  -0.01    -0.01  -0.14   0.02    -0.03  -0.12   0.03
  28   1    -0.01  -0.06   0.05    -0.05  -0.15  -0.06    -0.02  -0.14   0.01
  29   1    -0.00  -0.01   0.00     0.03   0.13  -0.02    -0.03  -0.01  -0.05
  30   1     0.10   0.25  -0.01     0.03   0.05   0.01    -0.04  -0.01  -0.04
  31   1     0.05   0.10   0.01    -0.03  -0.06  -0.02     0.04   0.03   0.04
  32   1     0.00   0.04  -0.03    -0.05  -0.07  -0.04     0.03   0.03   0.02
  33   1    -0.00  -0.02   0.00    -0.01  -0.05   0.01     0.02   0.07   0.01
  34   1    -0.02  -0.01  -0.00    -0.02  -0.02  -0.00     0.03   0.08  -0.01
  35   1    -0.01   0.04  -0.02    -0.01   0.04  -0.03     0.01  -0.08   0.06
                     61                     62                     63
                        a                      a                      a 
 Frequencies --  1274.4432              1269.3416              1289.3046
 Red. masses --    99.0000                99.0000                99.0000
 Frc consts  --    99.0000                99.0000                99.0000
 IR Inten    --    99.0000                99.0000                99.0000
 Raman Activ --     0.0000                 0.0000                 0.0000
 Depolar     --     0.0000                 0.0000                 0.0000
 Atom AN      X      Y      Z        X      Y      Z        X      Y      Z
   1   6    -0.01  -0.00   0.01     0.10   0.01   0.00     0.04  -0.03  -0.08
   2   6     0.01   0.00  -0.01    -0.09  -0.05  -0.05     0.11   0.11   0.02
   3   6     0.01  -0.01  -0.01    -0.07  -0.04   0.10    -0.09   0.06   0.02
   4   6    -0.03  -0.01   0.02     0.09   0.08  -0.01    -0.07  -0.08  -0.02
   5   6     0.01  -0.03  -0.02    -0.10  -0.14  -0.10     0.01   0.04   0.10
   6   6     0.06   0.07  -0.01     0.01  -0.02   0.13    -0.02   0.08  -0.05
   7   6    -0.02  -0.09   0.04    -0.03   0.11  -0.08     0.02  -0.02  -0.07
   8   6     0.13   0.07  -0.14     0.07  -0.12  -0.04     0.03  -0.09   0.06
   9   6    -0.13   0.23   0.10    -0.13  -0.07   0.09    -0.10  -0.06   0.02
  10   6     0.06   0.12   0.12    -0.08  -0.05  -0.04    -0.09  -0.08  -0.02
  11   6     0.05  -0.06  -0.16     0.11  -0.02  -0.00     0.06  -0.00   0.03
  12   1     0.01   0.00  -0.00    -0.04   0.04  -0.01     0.01  -0.05   0.04
  13   1    -0.00   0.01  -0.01     0.01  -0.09   0.04     0.00  -0.02   0.05
  14   1     0.01  -0.01   0.00    -0.05   0.03  -0.03    -0.01   0.07  -0.02
  15   1     0.00  -0.01   0.01    -0.01   0.19  -0.02     0.03   0.19   0.08
  16   1    -0.00   0.01  -0.00     0.01  -0.10   0.00    -0.04  -0.40  -0.06
  17   1    -0.01   0.06  -0.01     0.04  -0.04   0.06     0.05   0.18   0.05
  18   1    -0.00  -0.03  -0.01     0.02   0.22   0.01    -0.05  -0.40  -0.09
  19   1    -0.01   0.01  -0.01     0.21  -0.18   0.11    -0.17   0.09  -0.04
  20   1     0.01  -0.04   0.02    -0.15   0.18  -0.11     0.07  -0.09   0.06
  21   1    -0.11   0.04   0.06     0.14  -0.03  -0.01    -0.14   0.02   0.04
  22   1     0.05  -0.01  -0.03    -0.01   0.03  -0.12     0.21  -0.05  -0.04
  23   1    -0.11   0.01  -0.02     0.24  -0.06  -0.05     0.05  -0.02  -0.07
  24   1    -0.07   0.02   0.06    -0.25   0.06   0.13     0.07  -0.03   0.01
  25   1     0.11   0.07   0.05     0.21   0.04   0.10    -0.12  -0.08  -0.07
  26   1     0.07  -0.04  -0.02    -0.14   0.03  -0.02     0.17   0.07   0.09
  27   1    -0.02   0.12  -0.07     0.01   0.19  -0.05     0.09   0.25   0.01
  28   1    -0.14  -0.41   0.07     0.03   0.04   0.05    -0.03  -0.11   0.05
  29   1    -0.09  -0.43   0.08     0.10   0.10   0.05     0.04   0.05   0.02
  30   1    -0.09  -0.11  -0.12     0.07   0.22  -0.06     0.10   0.29  -0.04
  31   1    -0.13  -0.44   0.03    -0.04  -0.10  -0.01     0.04   0.09   0.00
  32   1     0.05   0.12  -0.01     0.10   0.30  -0.02     0.04   0.15  -0.02
  33   1    -0.00  -0.04   0.10    -0.01  -0.09   0.04    -0.00  -0.04   0.00
  34   1     0.00   0.14  -0.05    -0.04   0.04  -0.03    -0.03   0.01  -0.01
  35   1    -0.03  -0.07   0.09    -0.03   0.07  -0.02    -0.02   0.06  -0.03
                     64                     65                     66
                        a                      a                      a 
 Frequencies --  1292.4528              1286.4421              1304.4617
 Red. masses --    99.0000                99.0000                99.0000
 Frc consts  --    99.0000                99.0000                99.0000
 IR Inten    --    99.0000                99.0000                99.0000
 Raman Activ --     0.0000                 0.0000                 0.0000
 Depolar     --     0.0000                 0.0000                 0.0000
 Atom AN      X      Y      Z        X      Y      Z        X      Y      Z
   1   6     0.02  -0.01  -0.01     0.03  -0.00  -0.01     0.05   0.04   0.11
   2   6     0.04   0.02  -0.02    -0.01  -0.00  -0.01    -0.04  -0.24  -0.08
   3   6    -0.02  -0.00  -0.01    -0.03  -0.01   0.03    -0.02  -0.23  -0.10
   4   6    -0.07  -0.03   0.05     0.03   0.02   0.00    -0.01   0.06   0.15
   5   6     0.05  -0.15  -0.04    -0.02   0.00  -0.03     0.13  -0.06  -0.05
   6   6     0.13   0.07  -0.01    -0.01  -0.05   0.01     0.10   0.03  -0.12
   7   6    -0.07   0.08   0.09     0.01   0.02   0.03    -0.03  -0.03   0.03
   8   6    -0.01   0.05  -0.06     0.10  -0.04  -0.11     0.03  -0.02   0.06
   9   6     0.11   0.00  -0.05     0.11   0.01  -0.04    -0.04  -0.04  -0.02
  10   6     0.04   0.05   0.01    -0.11   0.08   0.09    -0.05  -0.06  -0.01
  11   6    -0.05   0.01   0.00    -0.07   0.02   0.03     0.02   0.00   0.03
  12   1     0.00  -0.01   0.00    -0.01   0.00   0.00    -0.04   0.12  -0.09
  13   1     0.00  -0.01   0.01     0.00  -0.02   0.01     0.01  -0.02  -0.04
  14   1    -0.00   0.02  -0.01    -0.01   0.01  -0.01    -0.03  -0.03  -0.00
  15   1     0.01   0.10   0.04     0.00   0.07   0.00     0.01   0.31   0.02
  16   1    -0.01  -0.12  -0.03    -0.00  -0.06  -0.01     0.02   0.34   0.02
  17   1     0.03   0.20   0.02     0.02  -0.01   0.02     0.02   0.36  -0.01
  18   1    -0.02  -0.15  -0.01     0.00   0.03  -0.01     0.02   0.26   0.02
  19   1    -0.02   0.00  -0.00     0.05  -0.04   0.02    -0.00   0.11  -0.08
  20   1    -0.01  -0.08   0.02    -0.05   0.06  -0.04     0.01  -0.13   0.04
  21   1    -0.35   0.09   0.19     0.10  -0.03  -0.05    -0.23   0.05   0.09
  22   1     0.18  -0.02  -0.15    -0.07   0.02   0.01    -0.20   0.06   0.05
  23   1     0.20  -0.07  -0.13    -0.01   0.02   0.05    -0.17   0.04   0.02
  24   1    -0.42   0.10   0.21    -0.03  -0.01   0.02    -0.10   0.01   0.06
  25   1     0.12   0.13   0.08     0.09   0.03   0.05    -0.15  -0.02  -0.07
  26   1    -0.13  -0.03  -0.06    -0.08  -0.04  -0.06     0.18   0.04   0.07
  27   1    -0.11  -0.31  -0.02    -0.02   0.10  -0.07     0.01   0.06   0.01
  28   1     0.06   0.18  -0.01    -0.02  -0.11   0.05    -0.01  -0.07  -0.00
  29   1    -0.04  -0.01  -0.04    -0.25  -0.48  -0.04     0.02   0.04  -0.00
  30   1    -0.04  -0.16   0.06     0.18   0.39   0.05     0.06   0.16  -0.00
  31   1     0.01   0.04   0.00     0.18   0.31   0.06     0.04   0.10   0.00
  32   1    -0.05  -0.17   0.00    -0.18  -0.40  -0.09     0.02   0.08  -0.01
  33   1     0.00   0.04  -0.02     0.00   0.05  -0.03     0.00  -0.01  -0.01
  34   1     0.02  -0.03   0.02     0.01  -0.05   0.03    -0.02  -0.00  -0.00
  35   1     0.02  -0.03   0.01    -0.00  -0.01   0.01    -0.01   0.04  -0.03
                     67                     68                     69
                        a                      a                      a 
 Frequencies --  1320.5582              1358.7962              1348.5571
 Red. masses --    99.0000                99.0000                99.0000
 Frc consts  --    99.0000                99.0000                99.0000
 IR Inten    --    99.0000                99.0000                99.0000
 Raman Activ --     0.0000                 0.0000                 0.0000
 Depolar     --     0.0000                 0.0000                 0.0000
 Atom AN      X      Y      Z        X      Y      Z        X      Y      Z
   1   6     0.04   0.02   0.07    -0.01   0.00   0.01     0.00   0.00   0.01
   2   6    -0.01  -0.18  -0.04     0.01   0.02  -0.02    -0.00  -0.02  -0.00
   3   6    -0.03  -0.10  -0.09     0.08  -0.04   0.02     0.01   0.01  -0.00
   4   6     0.02  -0.02  -0.03    -0.23   0.26  -0.12    -0.01   0.01  -0.03
   5   6    -0.16   0.08   0.17    -0.01  -0.06   0.03    -0.08   0.03   0.04
   6   6    -0.20   0.01   0.14     0.05   0.06   0.03    -0.01   0.00   0.03
   7   6     0.03   0.04  -0.09    -0.35  -0.12  -0.14    -0.00  -0.07   0.05
   8   6    -0.03  -0.04  -0.04     0.09  -0.02   0.02     0.11   0.31  -0.03
   9   6     0.03   0.03   0.02     0.00  -0.03  -0.02    -0.01   0.07  -0.07
  10   6     0.03   0.07   0.01     0.00   0.02   0.00    -0.13  -0.36   0.00
  11   6    -0.02  -0.00  -0.02    -0.01  -0.00  -0.00     0.07   0.02   0.09
  12   1    -0.03   0.08  -0.06     0.01  -0.00  -0.00    -0.00   0.01  -0.01
  13   1     0.01  -0.01  -0.02    -0.00  -0.00  -0.00     0.00   0.00  -0.00
  14   1    -0.03  -0.00  -0.01     0.01  -0.01   0.00    -0.00   0.00  -0.00
  15   1     0.01   0.27   0.03     0.00  -0.04  -0.00    -0.00   0.02   0.00
  16   1     0.02   0.22   0.02    -0.01  -0.02  -0.01     0.01   0.03   0.01
  17   1     0.03   0.19   0.00    -0.01   0.10  -0.01    -0.00  -0.01  -0.00
  18   1    -0.01   0.08   0.02     0.00  -0.11   0.03    -0.00  -0.02   0.00
[...]
 IR Inten    --    99.0000                99.0000                99.0000
 Raman Activ --     0.0000                 0.0000                 0.0000
 Depolar     --     0.0000                 0.0000                 0.0000
 Atom AN      X      Y      Z        X      Y      Z        X      Y      Z
   1   6    -0.00   0.00   0.00     0.00  -0.00  -0.00     0.02   0.01   0.02
   2   6     0.00   0.00  -0.00    -0.04  -0.00   0.04    -0.03   0.00  -0.01
   3   6    -0.01  -0.00   0.00     0.05  -0.00  -0.01    -0.00   0.00  -0.02
   4   6    -0.01  -0.01  -0.01     0.06   0.03  -0.03    -0.01  -0.02  -0.03
   5   6     0.00   0.05  -0.03    -0.01  -0.14   0.06    -0.09  -0.13  -0.15
   6   6     0.00   0.02  -0.00    -0.05  -0.11  -0.06    -0.01   0.03  -0.06
   7   6    -0.04  -0.10   0.15    -0.04   0.01   0.06     0.01   0.01  -0.02
   8   6    -0.15   0.05   0.02    -0.07   0.02   0.01     0.01  -0.00  -0.03
   9   6     0.08  -0.03  -0.08    -0.01   0.01   0.01    -0.00   0.00  -0.01
  10   6    -0.03   0.01   0.04     0.08  -0.03  -0.06    -0.00  -0.00  -0.00
  11   6     0.00  -0.00  -0.00    -0.01   0.00   0.00     0.00   0.00   0.01
  12   1    -0.00  -0.00  -0.00     0.00   0.00   0.00    -0.02  -0.04  -0.03
  13   1    -0.00   0.00   0.00    -0.01   0.00  -0.00    -0.06   0.01  -0.01
  14   1     0.00   0.00  -0.00    -0.01  -0.00   0.02     0.01   0.00  -0.02
  15   1     0.00  -0.00   0.00     0.07  -0.00   0.02     0.13  -0.01   0.02
  16   1    -0.01  -0.00   0.01     0.08   0.01  -0.15    -0.03  -0.00   0.04
  17   1     0.01   0.00  -0.02    -0.04  -0.00   0.07    -0.04  -0.00   0.06
  18   1     0.02  -0.00   0.00    -0.14   0.02  -0.03     0.04  -0.01   0.01
  19   1     0.02   0.03   0.03    -0.06  -0.12  -0.12     0.04   0.07   0.06
  20   1     0.01  -0.00  -0.01    -0.14   0.01   0.23    -0.03  -0.00   0.04
  21   1    -0.00  -0.16   0.10     0.01   0.46  -0.28    -0.02  -0.17   0.07
  22   1    -0.00  -0.00  -0.01     0.02   0.02   0.04     0.34   0.63   0.48
  23   1     0.00  -0.05   0.04    -0.01   0.00  -0.02    -0.00  -0.23   0.14
  24   1    -0.02  -0.03  -0.02     0.18   0.36   0.25     0.05   0.11   0.07
  25   1     0.14  -0.07  -0.24     0.13  -0.05  -0.24    -0.03   0.01   0.04
  26   1    -0.01   0.44  -0.29    -0.01   0.01   0.00     0.00  -0.03   0.02
  27   1     0.05  -0.01  -0.15     0.02  -0.01  -0.06    -0.06   0.02   0.11
  28   1     0.51  -0.18   0.08     0.22  -0.08   0.03     0.02  -0.01  -0.00
  29   1    -0.12   0.05   0.32     0.02  -0.01  -0.05    -0.01   0.01   0.03
  30   1    -0.18   0.07  -0.03     0.03  -0.01   0.00     0.03  -0.01   0.00
  31   1     0.05  -0.02  -0.16    -0.07   0.02   0.22    -0.01   0.00   0.02
  32   1     0.08  -0.03   0.01    -0.20   0.08  -0.01     0.01  -0.00  -0.00
  33   1    -0.01   0.00  -0.00     0.02  -0.01   0.00    -0.01   0.00   0.00
  34   1    -0.00  -0.00   0.01     0.01  -0.00  -0.02     0.01  -0.00  -0.02
  35   1     0.00   0.00   0.00    -0.00   0.00   0.00    -0.00  -0.00  -0.00
                     85                     86                     87
                        a                      a                      a 
 Frequencies --  2991.3942              2973.5788              3029.9030
 Red. masses --    99.0000                99.0000                99.0000
 Frc consts  --    99.0000                99.0000                99.0000
 IR Inten    --    99.0000                99.0000                99.0000
 Raman Activ --     0.0000                 0.0000                 0.0000
 Depolar     --     0.0000                 0.0000                 0.0000
 Atom AN      X      Y      Z        X      Y      Z        X      Y      Z
   1   6    -0.03  -0.02  -0.03    -0.01   0.00   0.00     0.12  -0.09  -0.25
   2   6     0.13  -0.01   0.11     0.04   0.00  -0.04     0.02  -0.00  -0.03
   3   6     0.01  -0.01   0.11     0.04  -0.00   0.01     0.01   0.00  -0.02
   4   6    -0.00   0.01   0.02     0.02   0.01  -0.01     0.00  -0.00  -0.01
   5   6    -0.01  -0.01  -0.03     0.00  -0.02   0.01    -0.00   0.00  -0.00
   6   6    -0.00   0.01  -0.02    -0.02  -0.05  -0.03    -0.00   0.01  -0.01
   7   6     0.00   0.00  -0.01     0.04  -0.10  -0.02     0.00   0.00  -0.00
   8   6     0.01  -0.00  -0.03    -0.01   0.00  -0.05    -0.00   0.00  -0.00
   9   6     0.04  -0.02   0.00    -0.08   0.03   0.12    -0.00   0.00  -0.00
  10   6     0.01  -0.00  -0.01    -0.10   0.04   0.09     0.00   0.00   0.00
  11   6    -0.00   0.00  -0.00     0.01  -0.01  -0.01     0.01   0.00   0.01
  12   1     0.03   0.07   0.05    -0.00   0.00   0.00     0.18   0.35   0.26
  13   1     0.10  -0.01   0.01     0.02  -0.00   0.00    -0.26   0.01  -0.07
  14   1    -0.03  -0.01   0.05     0.01   0.00  -0.02    -0.35  -0.06   0.68
  15   1    -0.68   0.04  -0.08    -0.04   0.00  -0.01    -0.02   0.00  -0.01
  16   1     0.20   0.02  -0.33    -0.08  -0.01   0.16    -0.06  -0.00   0.11
  17   1     0.22   0.00  -0.34     0.01  -0.00  -0.00    -0.04   0.00   0.06
  18   1    -0.25   0.03  -0.04    -0.13   0.02  -0.03     0.02  -0.00  -0.00
  19   1    -0.02  -0.04  -0.04    -0.02  -0.05  -0.04     0.00   0.00   0.00
  20   1     0.03   0.00  -0.04    -0.05   0.00   0.09    -0.01  -0.00   0.01
  21   1    -0.00  -0.05   0.02     0.00   0.08  -0.05    -0.00  -0.01   0.00
  22   1     0.05   0.09   0.07    -0.01  -0.02  -0.01     0.00   0.01   0.00
  23   1    -0.00  -0.08   0.05    -0.00   0.01  -0.01    -0.00  -0.03   0.02
  24   1     0.01   0.02   0.01     0.09   0.18   0.13     0.00   0.01   0.00
  25   1    -0.01   0.01   0.02    -0.16   0.05   0.29    -0.00   0.00   0.00
  26   1     0.00  -0.02   0.01     0.01   0.32  -0.23     0.00  -0.01   0.00
  27   1    -0.06   0.02   0.13    -0.09   0.03   0.17    -0.00   0.00   0.00
  28   1     0.03  -0.01  -0.00     0.13  -0.05   0.01     0.00  -0.00   0.00
  29   1     0.01  -0.00  -0.01     0.18  -0.07  -0.47    -0.00   0.00   0.00
  30   1    -0.14   0.06  -0.01     0.09  -0.04   0.02     0.00  -0.00  -0.00
  31   1    -0.01   0.00   0.03     0.11  -0.04  -0.34     0.00  -0.00  -0.00
  32   1    -0.01   0.00  -0.00     0.23  -0.09   0.02     0.00  -0.00   0.00
  33   1     0.02  -0.01   0.00    -0.04   0.01  -0.00    -0.02   0.01   0.00
  34   1    -0.00   0.00   0.00    -0.02   0.01   0.06     0.01  -0.00  -0.02
  35   1    -0.00   0.00   0.00     0.01   0.01   0.00    -0.02  -0.02  -0.02
                     88                     89                     90
                        a                      a                      a 
 Frequencies --  3010.4686              3031.9656              2976.2477
 Red. masses --    99.0000                99.0000                99.0000
 Frc consts  --    99.0000                99.0000                99.0000
 IR Inten    --    99.0000                99.0000                99.0000
 Raman Activ --     0.0000                 0.0000                 0.0000
 Depolar     --     0.0000                 0.0000                 0.0000
 Atom AN      X      Y      Z        X      Y      Z        X      Y      Z
   1   6     0.01  -0.00  -0.01     0.04   0.02   0.01    -0.01   0.00   0.01
   2   6    -0.02   0.00   0.00     0.01   0.00   0.00     0.05   0.00  -0.07
   3   6    -0.02  -0.00   0.03     0.00  -0.00   0.00     0.07  -0.01   0.02
   4   6    -0.01  -0.01   0.00     0.00   0.00   0.00     0.09   0.06  -0.03
   5   6    -0.03  -0.08  -0.03     0.00   0.00   0.00     0.00   0.04  -0.02
   6   6     0.01  -0.17   0.14     0.00   0.00  -0.00    -0.00  -0.02  -0.00
   7   6    -0.00  -0.03   0.03    -0.00   0.00   0.00     0.04  -0.07  -0.03
   8   6     0.01  -0.01   0.00    -0.00   0.00   0.00     0.06  -0.02   0.04
   9   6     0.04  -0.02   0.01    -0.02   0.01   0.00     0.04  -0.02  -0.09
  10   6     0.01  -0.00   0.00    -0.04   0.01   0.02     0.04  -0.02  -0.06
  11   6    -0.01  -0.00  -0.01    -0.26   0.07   0.10    -0.00   0.00   0.01
  12   1     0.00   0.01   0.00    -0.04  -0.10  -0.08    -0.00  -0.00  -0.00
  13   1    -0.03   0.00  -0.01    -0.08   0.01  -0.01     0.03  -0.00   0.01
  14   1    -0.02  -0.00   0.04    -0.02  -0.00   0.06     0.01   0.00  -0.03
  15   1     0.06  -0.00   0.01    -0.02   0.00  -0.00    -0.04   0.00  -0.02
  16   1     0.00   0.00  -0.01    -0.00  -0.00   0.00    -0.14  -0.02   0.26
  17   1     0.08   0.00  -0.13     0.00  -0.00  -0.00     0.03  -0.00  -0.03
  18   1    -0.01   0.00   0.00    -0.01   0.00  -0.00    -0.29   0.04  -0.06
  19   1     0.01   0.02   0.02    -0.00  -0.00  -0.00    -0.12  -0.25  -0.23
  20   1     0.02  -0.00  -0.03    -0.00   0.00   0.00    -0.20   0.01   0.34
  21   1    -0.00   0.04  -0.03     0.00  -0.00   0.00    -0.00  -0.14   0.09
  22   1     0.12   0.23   0.18    -0.01  -0.01  -0.01    -0.00   0.00  -0.00
  23   1    -0.00   0.72  -0.47     0.00  -0.01   0.01     0.00   0.02  -0.01
  24   1    -0.04  -0.11  -0.04    -0.00  -0.00  -0.00     0.02   0.04   0.03
  25   1     0.01  -0.01  -0.02     0.00  -0.00  -0.00    -0.14   0.05   0.26
  26   1     0.00   0.09  -0.06    -0.00  -0.00   0.00     0.01   0.21  -0.15
  27   1     0.00  -0.00   0.00     0.00  -0.00  -0.01     0.07  -0.02  -0.12
  28   1    -0.04   0.01  -0.01     0.01  -0.00   0.00    -0.28   0.10  -0.03
  29   1     0.02  -0.01  -0.04     0.00  -0.00  -0.01    -0.13   0.05   0.33
  30   1    -0.16   0.07  -0.01     0.06  -0.02   0.00    -0.01   0.00  -0.01
  31   1     0.00  -0.00  -0.01     0.02  -0.01  -0.05    -0.07   0.02   0.20
  32   1    -0.03   0.01  -0.00     0.10  -0.04   0.00    -0.08   0.03  -0.01
  33   1     0.03  -0.01  -0.00     0.75  -0.29   0.03     0.01  -0.01   0.00
  34   1    -0.01   0.00   0.01     0.12  -0.04  -0.43     0.01  -0.00  -0.04
  35   1     0.01   0.02   0.01     0.03   0.08   0.07    -0.01  -0.01  -0.00
                     91                     92                     93
                        a                      a                      a 
 Frequencies --  3031.1768              2993.8215              2988.7368
 Red. masses --    99.0000                99.0000                99.0000
 Frc consts  --    99.0000                99.0000                99.0000
 IR Inten    --    99.0000                99.0000                99.0000
 Raman Activ --     0.0000                 0.0000                 0.0000
 Depolar     --     0.0000                 0.0000                 0.0000
 Atom AN      X      Y      Z        X      Y      Z        X      Y      Z
   1   6     0.24   0.12   0.08    -0.00  -0.00  -0.01    -0.01   0.00   0.02
   2   6     0.05   0.00   0.01    -0.01   0.00   0.01     0.09  -0.00  -0.01
   3   6     0.01  -0.00   0.01    -0.01  -0.00   0.04     0.05   0.01  -0.14
   4   6     0.00   0.00   0.00     0.00   0.00   0.01     0.01  -0.00  -0.03
   5   6     0.01   0.01   0.01     0.00  -0.00   0.00     0.01   0.01   0.01
   6   6     0.00   0.00   0.00     0.01  -0.02   0.03     0.00  -0.03   0.02
   7   6    -0.00   0.00   0.00    -0.00   0.01  -0.01     0.01   0.00  -0.03
   8   6    -0.00   0.00   0.00    -0.04   0.02  -0.06     0.02  -0.01  -0.12
   9   6     0.00  -0.00   0.00    -0.16   0.07  -0.08     0.06  -0.03  -0.03
  10   6     0.01  -0.00  -0.00    -0.07   0.02  -0.04    -0.00   0.00  -0.05
  11   6     0.04  -0.01  -0.02     0.03   0.00   0.02    -0.00   0.01   0.01
  12   1    -0.19  -0.50  -0.40     0.00   0.00   0.00    -0.00  -0.00  -0.00
  13   1    -0.60   0.07  -0.07     0.01  -0.00   0.00     0.03  -0.00   0.01
  14   1    -0.06   0.01   0.19    -0.01  -0.00   0.02     0.03   0.00  -0.06
  15   1    -0.15   0.01  -0.02     0.01  -0.00   0.00    -0.31   0.02  -0.05
  16   1     0.01   0.00  -0.01     0.01   0.00  -0.03    -0.02  -0.00   0.05
  17   1     0.01  -0.00  -0.01     0.09   0.00  -0.15    -0.32  -0.01   0.51
  18   1    -0.05   0.00  -0.01    -0.07   0.01  -0.01     0.16  -0.02   0.01
  19   1    -0.00  -0.01  -0.01    -0.01  -0.02  -0.02     0.01   0.02   0.01
  20   1    -0.00   0.00   0.00     0.01   0.00  -0.01    -0.06   0.00   0.10
  21   1     0.00   0.01  -0.00    -0.00   0.01  -0.00     0.00  -0.00   0.01
  22   1    -0.02  -0.04  -0.03     0.00  -0.00  -0.00    -0.03  -0.05  -0.04
  23   1     0.00   0.00  -0.00     0.00   0.14  -0.09     0.00   0.12  -0.08
  24   1    -0.00  -0.01  -0.00    -0.02  -0.05  -0.03    -0.01  -0.02  -0.01
  25   1     0.00  -0.00  -0.00    -0.00   0.00  -0.00    -0.04   0.02   0.08
  26   1    -0.00  -0.00   0.00    -0.00  -0.05   0.03     0.00  -0.03   0.02
  27   1     0.00  -0.00  -0.00    -0.10   0.03   0.20    -0.22   0.07   0.44
  28   1    -0.00   0.00   0.00     0.22  -0.08   0.02     0.16  -0.06   0.00
  29   1     0.00  -0.00  -0.00    -0.12   0.05   0.24    -0.04   0.02   0.12
  30   1    -0.01   0.00  -0.00     0.69  -0.28   0.03    -0.19   0.08  -0.02
  31   1    -0.00   0.00   0.01    -0.07   0.02   0.15    -0.08   0.03   0.20
  32   1    -0.01   0.00  -0.00     0.29  -0.11  -0.00     0.09  -0.03  -0.01
  33   1    -0.12   0.05  -0.00    -0.09   0.03   0.00     0.01  -0.00   0.00
  34   1    -0.03   0.01   0.09     0.02  -0.00  -0.04     0.01  -0.00  -0.03
  35   1    -0.01  -0.02  -0.02    -0.03  -0.04  -0.03    -0.01  -0.01  -0.01
                     94                     95                     96
                        a                      a                      a 
 Frequencies --  2987.1463              2981.1319              2977.7536
 Red. masses --    99.0000                99.0000                99.0000
 Frc consts  --    99.0000                99.0000                99.0000
 IR Inten    --    99.0000                99.0000                99.0000
 Raman Activ --     0.0000                 0.0000                 0.0000
 Depolar     --     0.0000                 0.0000                 0.0000
 Atom AN      X      Y      Z        X      Y      Z        X      Y      Z
   1   6     0.02   0.00  -0.00     0.00   0.00   0.00    -0.01   0.00   0.00
   2   6    -0.11   0.01  -0.03    -0.01   0.00  -0.01     0.02   0.00  -0.05
   3   6    -0.05  -0.00   0.10    -0.00  -0.00   0.01     0.06  -0.00   0.01
   4   6    -0.01   0.00   0.03     0.00   0.00   0.00     0.08   0.07  -0.02
   5   6     0.02   0.02   0.03    -0.00  -0.00  -0.01     0.00   0.06  -0.04
   6   6    -0.00   0.01  -0.02    -0.00   0.01  -0.01     0.02   0.05   0.04
   7   6     0.02   0.00  -0.04    -0.01   0.01   0.02    -0.05   0.11   0.02
   8   6     0.04  -0.01  -0.13    -0.02   0.01   0.06    -0.05   0.02  -0.03
   9   6     0.10  -0.04  -0.03     0.03  -0.02   0.05    -0.01   0.01   0.06
  10   6     0.03  -0.01  -0.04    -0.13   0.05  -0.12    -0.01   0.00   0.04
  11   6    -0.01   0.00   0.01     0.02   0.01   0.01     0.00  -0.00  -0.01
  12   1    -0.00  -0.01  -0.01     0.00  -0.00  -0.00    -0.00  -0.00  -0.00
  13   1    -0.06   0.01  -0.01    -0.00   0.00  -0.00     0.02  -0.00   0.00
  14   1    -0.01  -0.00   0.03     0.00   0.00  -0.00     0.01   0.00  -0.02
  15   1     0.43  -0.03   0.06     0.05  -0.00   0.01     0.03  -0.00  -0.00
  16   1    -0.05  -0.00   0.06    -0.01  -0.00   0.02    -0.10  -0.01   0.19
  17   1     0.23   0.00  -0.37     0.02   0.00  -0.04     0.02  -0.00  -0.02
  18   1    -0.07   0.01   0.00    -0.02   0.00  -0.00    -0.22   0.03  -0.05
  19   1    -0.01  -0.01  -0.01    -0.00  -0.01  -0.01    -0.13  -0.25  -0.23
  20   1     0.05  -0.00  -0.08    -0.00   0.00   0.00    -0.17   0.01   0.29
  21   1     0.00   0.05  -0.03    -0.00  -0.01   0.01    -0.01  -0.22   0.14
  22   1    -0.06  -0.11  -0.08     0.01   0.02   0.01     0.01   0.02   0.01
  23   1    -0.00  -0.09   0.06    -0.00  -0.04   0.03     0.00   0.03  -0.01
  24   1     0.02   0.04   0.03     0.00   0.01   0.00    -0.10  -0.20  -0.14
  25   1    -0.07   0.02   0.12     0.05  -0.02  -0.09     0.18  -0.05  -0.32
  26   1     0.00  -0.04   0.02    -0.00  -0.00   0.01    -0.01  -0.33   0.24
  27   1    -0.24   0.08   0.48     0.11  -0.04  -0.22    -0.05   0.02   0.08
  28   1     0.12  -0.04  -0.00    -0.04   0.01   0.00     0.23  -0.08   0.03
  29   1    -0.03   0.01   0.10     0.09  -0.04  -0.20     0.09  -0.04  -0.22
  30   1    -0.32   0.13  -0.02    -0.23   0.09  -0.01    -0.05   0.02   0.01
  31   1    -0.05   0.02   0.15    -0.19   0.07   0.46     0.06  -0.02  -0.16
  32   1    -0.04   0.01  -0.01     0.66  -0.25  -0.00    -0.01   0.00   0.01
  33   1     0.03  -0.01   0.00    -0.05   0.02   0.00    -0.00   0.00  -0.00
  34   1     0.01  -0.00  -0.03     0.01   0.00  -0.02    -0.01   0.00   0.03
  35   1    -0.00  -0.00   0.00    -0.03  -0.03  -0.02     0.00   0.00   0.00
                     97                     98                     99
                        a                      a                      a 
 Frequencies --  3035.1442              3037.6549              3040.8712
 Red. masses --    99.0000                99.0000                99.0000
 Frc consts  --    99.0000                99.0000                99.0000
 IR Inten    --    99.0000                99.0000                99.0000
 Raman Activ --     0.0000                 0.0000                 0.0000
 Depolar     --     0.0000                 0.0000                 0.0000
 Atom AN      X      Y      Z        X      Y      Z        X      Y      Z
   1   6    -0.00   0.00   0.01    -0.07   0.11  -0.07     0.00   0.00  -0.00
   2   6    -0.00  -0.00   0.00    -0.01   0.01  -0.01     0.00  -0.00   0.00
   3   6    -0.00  -0.00   0.00    -0.00   0.00  -0.01     0.00  -0.00   0.00
   4   6    -0.00   0.00   0.00    -0.00  -0.00  -0.00     0.00   0.00   0.00
   5   6     0.00  -0.00   0.00    -0.00  -0.00  -0.00     0.00   0.00   0.00
   6   6     0.00  -0.00   0.00    -0.00  -0.00  -0.00     0.00   0.00   0.00
   7   6    -0.00  -0.00   0.00     0.00  -0.00  -0.00    -0.00   0.00   0.00
   8   6     0.00  -0.00   0.01     0.00  -0.00  -0.00    -0.00   0.00  -0.00
   9   6     0.01  -0.00   0.01     0.00  -0.00   0.00     0.00  -0.00   0.00
  10   6     0.01  -0.00   0.03     0.00  -0.00   0.00    -0.00  -0.00   0.00
  11   6     0.11   0.09   0.25     0.01   0.00   0.00    -0.06  -0.14   0.03
  12   1    -0.00  -0.01  -0.00    -0.16  -0.35  -0.29    -0.00  -0.01  -0.01
  13   1    -0.02   0.00  -0.00     0.67  -0.04   0.08    -0.00   0.00  -0.00
  14   1     0.02   0.00  -0.04    -0.25  -0.02   0.46    -0.01  -0.00   0.01
  15   1    -0.00   0.00   0.00     0.05  -0.00   0.00    -0.01   0.00  -0.00
  16   1     0.01   0.00  -0.01    -0.01   0.00   0.02     0.00   0.00  -0.00
  17   1     0.01  -0.00  -0.01    -0.01   0.00   0.02    -0.00   0.00   0.00
  18   1    -0.00   0.00   0.00     0.03  -0.00   0.00    -0.00   0.00  -0.00
  19   1    -0.00  -0.00  -0.00     0.00   0.01   0.00    -0.00  -0.00  -0.00
  20   1     0.00   0.00  -0.00    -0.00  -0.00  -0.00    -0.00   0.00   0.00
  21   1     0.00   0.01  -0.00    -0.00  -0.00  -0.00     0.00  -0.00   0.00
  22   1    -0.00  -0.00  -0.00     0.01   0.01   0.01    -0.00  -0.00  -0.00
  23   1    -0.00   0.02  -0.01    -0.00  -0.00   0.00     0.00   0.00  -0.00
  24   1    -0.00  -0.00  -0.00     0.00   0.00   0.00    -0.00  -0.00  -0.00
  25   1     0.00  -0.00  -0.01    -0.00   0.00   0.00     0.00  -0.00  -0.00
  26   1     0.00   0.01  -0.00     0.00   0.00  -0.00    -0.00  -0.00   0.00
  27   1     0.01  -0.00  -0.02    -0.00   0.00   0.00     0.00   0.00  -0.00
  28   1    -0.01   0.00  -0.00    -0.00   0.00  -0.00     0.00  -0.00   0.00
  29   1     0.02  -0.01  -0.05     0.00  -0.00  -0.00     0.00  -0.00  -0.01
  30   1    -0.05   0.02  -0.00    -0.01   0.01  -0.00    -0.01   0.00   0.00
  31   1     0.03  -0.01  -0.09     0.00  -0.00  -0.00     0.00  -0.00  -0.01
  32   1    -0.05   0.02   0.00    -0.01   0.00  -0.00     0.00  -0.00   0.00
  33   1    -0.27   0.12   0.03    -0.04   0.01  -0.00    -0.38   0.13  -0.00
  34   1     0.25  -0.06  -0.61     0.00   0.00   0.00     0.16  -0.07  -0.49
  35   1    -0.37  -0.40  -0.28    -0.02  -0.02  -0.02     0.44   0.46   0.37
