      -----------------------------------------------------------      
     |                   =====================                   |     
     |                           x T B                           |     
     |                   =====================                   |     
     |                         S. Grimme                         |     
     |          Mulliken Center for Theoretical Chemistry        |     
     |                    University of Bonn                     |     
      -----------------------------------------------------------      

   * xtb version 6.6.1 (8d0f1dd) compiled by 'stahn@M-Bot' on 2023-08-01

   xtb is free software: you can redistribute it and/or modify it under
   the terms of the GNU Lesser General Public License as published by
   the Free Software Foundation, either version 3 of the License, or
   (at your option) any later version.
   
   xtb is distributed in the hope that it will be useful,
   but WITHOUT ANY WARRANTY; without even the implied warranty of
   MERCHANTABILITY or FITNESS FOR A PARTICULAR PURPOSE.  See the
   GNU Lesser General Public License for more details.
   
   Cite this work as:
   * C. Bannwarth, E. Caldeweyher, S. Ehlert, A. Hansen, P. Pracht,
     J. Seibert, S. Spicher, S. Grimme, WIREs Comput. Mol. Sci., 2020, 11,
     e01493. DOI: 10.1002/wcms.1493
   
   for GFN2-xTB:
   * C. Bannwarth, S. Ehlert and S. Grimme., J. Chem. Theory Comput., 2019,
     15, 1652-1671. DOI: 10.1021/acs.jctc.8b01176
   for GFN1-xTB:
   * S. Grimme, C. Bannwarth, P. Shushkov, J. Chem. Theory Comput., 2017,
     13, 1989-2009. DOI: 10.1021/acs.jctc.7b00118
   for GFN0-xTB:
   * P. Pracht, E. Caldeweyher, S. Ehlert, S. Grimme, ChemRxiv, 2019, preprint.
     DOI: 10.26434/chemrxiv.8326202.v1
   for GFN-FF:
   * S. Spicher and S. Grimme, Angew. Chem. Int. Ed., 2020, 59, 15665-15673.
     DOI: 10.1002/anie.202004239
   
   for ALPB and GBSA implicit solvation:
   * S. Ehlert, M. Stahn, S. Spicher, S. Grimme, J. Chem. Theory Comput.,
     2021, 17, 4250-4261. DOI: 10.1021/acs.jctc.1c00471
   
   for DFT-D4:
   * E. Caldeweyher, C. Bannwarth and S. Grimme, J. Chem. Phys., 2017,
     147, 034112. DOI: 10.1063/1.4993215
   * E. Caldeweyher, S. Ehlert, A. Hansen, H. Neugebauer, S. Spicher,
     C. Bannwarth and S. Grimme, J. Chem. Phys., 2019, 150, 154122.
     DOI: 10.1063/1.5090222
   * E. Caldeweyher, J.-M. Mewes, S. Ehlert and S. Grimme, Phys. Chem. Chem. Phys.
     2020, 22, 8499-8512. DOI: 10.1039/D0CP00502A
   
   for sTDA-xTB:
   * S. Grimme and C. Bannwarth, J. Chem. Phys., 2016, 145, 054103.
     DOI: 10.1063/1.4959605
   
   in the mass-spec context:
   * V. Asgeirsson, C. Bauer and S. Grimme, Chem. Sci., 2017, 8, 4879.
     DOI: 10.1039/c7sc00601b
   * J. Koopman and S. Grimme, ACS Omega 2019, 4, 12, 15120-15133.
     DOI: 10.1021/acsomega.9b02011
   
   for metadynamics refer to:
   * S. Grimme, J. Chem. Theory Comput., 2019, 155, 2847-2862
     DOI: 10.1021/acs.jctc.9b00143
   
   for SPH calculations refer to:
   * S. Spicher and S. Grimme, J. Chem. Theory Comput., 2021, 17, 1701-1714
     DOI: 10.1021/acs.jctc.0c01306
   
   with help from (in alphabetical order)
   P. Atkinson, C. Bannwarth, F. Bohle, G. Brandenburg, E. Caldeweyher
   M. Checinski, S. Dohm, S. Ehlert, S. Ehrlich, I. Gerasimov, C. Hölzer
   A. Katbashev, J. Koopman, C. Lavigne, S. Lehtola, F. März, M. Müller,
   F. Musil, H. Neugebauer, J. Pisarek, C. Plett, P. Pracht, F. Pultar,
   J. Seibert, P. Shushkov, S. Spicher, M. Stahn, M. Steiner, T. Strunk,
   J. Stückrath, T. Rose, and J. Unsleber
   
 * started run on 2024/04/23 at 12:10:25.782     

           -------------------------------------------------
          |                Calculation Setup                |
           -------------------------------------------------

          program call               : xtb folded.xyz --gfn 2 --ohess -P 4
          coordinate file            : folded.xyz
          omp threads                :                     4

   ID    Z sym.   atoms
    1    6 C      1-11
    2    1 H      12-35

           -------------------------------------------------
          |                 G F N 2 - x T B                 |
           -------------------------------------------------

        Reference                      10.1021/acs.jctc.8b01176
      * Hamiltonian:
        H0-scaling (s, p, d)           1.850000    2.230000    2.230000
        zeta-weighting                 0.500000
      * Dispersion:
        s8                             2.700000
        a1                             0.520000
        a2                             5.000000
        s9                             5.000000
      * Repulsion:
        kExp                           1.500000    1.000000
        rExp                           1.000000
      * Coulomb:
        alpha                          2.000000
        third order                    shell-resolved
        anisotropic                    true
        a3                             3.000000
        a5                             4.000000
        cn-shift                       1.200000
        cn-exp                         4.000000
        max-rad                        5.000000


          ...................................................
          :                      SETUP                      :
          :.................................................:
          :  # basis functions                  68          :
          :  # atomic orbitals                  68          :
          :  # shells                           46          :
          :  # electrons                        68          :
          :  max. iterations                   250          :
          :  Hamiltonian                  GFN2-xTB          :
          :  restarted?                      false          :
          :  GBSA solvation                  false          :
          :  PC potential                    false          :
          :  electronic temp.          300.0000000     K    :
          :  accuracy                    1.0000000          :
          :  -> integral cutoff          0.2500000E+02      :
          :  -> integral neglect         0.1000000E-07      :
          :  -> SCF convergence          0.1000000E-05 Eh   :
          :  -> wf. convergence          0.1000000E-03 e    :
          :  Broyden damping             0.4000000          :
          ...................................................

 iter      E             dE          RMSdq      gap      omega  full diag
   1    -36.2384521 -0.362385E+02  0.250E+00   12.96       0.0  T
   2    -36.3304935 -0.920414E-01  0.134E+00   12.66       1.0  T
   3    -36.3315936 -0.110009E-02  0.712E-01   12.63       1.0  T
   4    -36.3318645 -0.270954E-03  0.870E-02   12.64       1.0  T
   5    -36.3318767 -0.121998E-04  0.462E-02   12.63       1.0  T
   6    -36.3318786 -0.186462E-05  0.413E-03   12.64       4.1  T
   7    -36.3318787 -0.979951E-07  0.147E-03   12.64      11.5  T
   8    -36.3318787 -0.129773E-07  0.294E-04   12.64      57.6  T
   9    -36.3318787 -0.175000E-09  0.133E-04   12.64     126.9  T

   *** convergence criteria satisfied after 9 iterations ***

         #    Occupation            Energy/Eh            Energy/eV
      -------------------------------------------------------------
         1        2.0000           -0.6224902             -16.9388
       ...           ...                  ...                  ...
        28        2.0000           -0.4267072             -11.6113
        29        2.0000           -0.4250164             -11.5653
        30        2.0000           -0.4230024             -11.5105
        31        2.0000           -0.4187999             -11.3961
        32        2.0000           -0.4145255             -11.2798
        33        2.0000           -0.4097536             -11.1500
        34        2.0000           -0.4051114             -11.0236 (HOMO)
        35                          0.0592796               1.6131 (LUMO)
        36                          0.0695145               1.8916
        37                          0.0728335               1.9819
        38                          0.0834229               2.2701
        39                          0.1007747               2.7422
       ...                                ...                  ...
        68                          0.3304309               8.9915
      -------------------------------------------------------------
                  HL-Gap            0.4643910 Eh           12.6367 eV
             Fermi-level           -0.1729159 Eh           -4.7053 eV

 SCC (total)                   0 d,  0 h,  0 min,  0.057 sec
 SCC setup                      ...        0 min,  0.001 sec (  2.409%)
 Dispersion                     ...        0 min,  0.001 sec (  1.744%)
 classical contributions        ...        0 min,  0.000 sec (  0.245%)
 integral evaluation            ...        0 min,  0.005 sec (  8.758%)
 iterations                     ...        0 min,  0.035 sec ( 61.548%)
 molecular gradient             ...        0 min,  0.013 sec ( 23.536%)
 printout                       ...        0 min,  0.001 sec (  1.554%)

         :::::::::::::::::::::::::::::::::::::::::::::::::::::
         ::                     SUMMARY                     ::
         :::::::::::::::::::::::::::::::::::::::::::::::::::::
         :: total energy             -35.810020767499 Eh    ::
         :: gradient norm              0.030349971439 Eh/a0 ::
         :: HOMO-LUMO gap             12.636721025637 eV    ::
         ::.................................................::
         :: SCC energy               -36.331878710037 Eh    ::
         :: -> isotropic ES            0.005723636535 Eh    ::
         :: -> anisotropic ES          0.012154814053 Eh    ::
         :: -> anisotropic XC          0.021409136161 Eh    ::
         :: -> dispersion             -0.024563599151 Eh    ::
         :: repulsion energy           0.521397335297 Eh    ::
         :: add. restraining           0.000000000000 Eh    ::
         :: total charge              -0.000000000000 e     ::
         :::::::::::::::::::::::::::::::::::::::::::::::::::::

      ----------------------------------------------------------- 
     |                   =====================                   |
     |                        A N C O P T                        |
     |                   =====================                   |
     |               Approximate Normal Coordinate               |
     |                Rational Function Optimizer                |
      ----------------------------------------------------------- 

          ...................................................
          :                      SETUP                      :
          :.................................................:
          :   optimization level            normal          :
          :   max. optcycles                   200          :
          :   ANC micro-cycles                  20          :
          :   degrees of freedom                99          :
          :.................................................:
          :   RF solver                   davidson          :
          :   write xtbopt.log                true          :
          :   linear?                        false          :
          :   energy convergence         0.5000000E-05 Eh   :
          :   grad. convergence          0.1000000E-02 Eh/α :
          :   maxmium RF displ.          2.0000000          :
          :   Hlow (freq-cutoff)         0.2000000E-01      :
          :   Hmax (freq-cutoff)         5.0000000          :
          :   S6 in model hess.         70.0000000          :
          ...................................................

generating ANC from model Hessian ...
Using Lindh-Hessian (1995)
 Shifting diagonal of input Hessian by   1.919269929973301E-002
 Lowest  eigenvalues of input Hessian
    0.000000    0.000000    0.000000    0.000000    0.000000    0.000000
    0.020000    0.020406    0.021138    0.023471    0.024196    0.024358
    0.025235    0.027364    0.027625    0.029876    0.031857    0.033021
 Highest eigenvalues
    1.219184    1.230312    1.249750    1.285679    1.307338    1.315553
 

........................................................................
.............................. CYCLE    1 ..............................
........................................................................

 iter      E             dE          RMSdq      gap      omega  full diag
   1    -36.3318787 -0.363319E+02  0.220E-05   12.64       0.0  T
   2    -36.3318787 -0.218847E-11  0.125E-05   12.64    1352.2  T
   3    -36.3318787 -0.355271E-13  0.514E-06   12.64    3289.9  T
     SCC iter.                  ...        0 min,  0.003 sec
     gradient                   ...        0 min,  0.004 sec
 * total energy  :   -35.8100208 Eh     change       -0.3218048E-10 Eh
   gradient norm :     0.0303496 Eh/α   predicted     0.0000000E+00 (-100.00%)
   displ. norm   :     0.1781514 α      lambda       -0.3136472E-02
   maximum displ.:     0.0962811 α      in ANC's #44, #31, #19, ...

........................................................................
.............................. CYCLE    2 ..............................
........................................................................

 iter      E             dE          RMSdq      gap      omega  full diag
   1    -36.3428939 -0.363429E+02  0.144E-01   12.82       0.0  T
   2    -36.3428985 -0.458226E-05  0.829E-02   12.82       1.0  T
   3    -36.3428992 -0.728520E-06  0.396E-03   12.82       4.3  T
   4    -36.3428993 -0.483600E-07  0.134E-03   12.82      12.6  T
   5    -36.3428993 -0.247093E-08  0.674E-04   12.82      25.1  T
   6    -36.3428993 -0.721244E-09  0.813E-05   12.82     207.9  T
     SCC iter.                  ...        0 min,  0.005 sec
     gradient                   ...        0 min,  0.003 sec
 * total energy  :   -35.8120854 Eh     change       -0.2064644E-02 Eh
   gradient norm :     0.0132077 Eh/α   predicted    -0.1618013E-02 ( -21.63%)
   displ. norm   :     0.0904205 α      lambda       -0.5615090E-03
   maximum displ.:     0.0438927 α      in ANC's #44, #16, #19, ...

........................................................................
.............................. CYCLE    3 ..............................
........................................................................

 iter      E             dE          RMSdq      gap      omega  full diag
   1    -36.3498628 -0.363499E+02  0.653E-02   12.89       0.0  T
   2    -36.3498654 -0.261693E-05  0.370E-02   12.90       1.0  T
   3    -36.3498655 -0.141004E-06  0.357E-03   12.90       4.7  T
   4    -36.3498655 -0.195708E-07  0.675E-04   12.90      25.1  T
   5    -36.3498655 -0.132282E-08  0.378E-04   12.90      44.7  T
     SCC iter.                  ...        0 min,  0.005 sec
     gradient                   ...        0 min,  0.003 sec
 * total energy  :   -35.8123896 Eh     change       -0.3042222E-03 Eh
   gradient norm :     0.0024706 Eh/α   predicted    -0.2830590E-03 (  -6.96%)
   displ. norm   :     0.0283781 α      lambda       -0.2469747E-04
   maximum displ.:     0.0156958 α      in ANC's #10, #1, #9, ...

........................................................................
.............................. CYCLE    4 ..............................
........................................................................

 iter      E             dE          RMSdq      gap      omega  full diag
   1    -36.3506456 -0.363506E+02  0.604E-03   12.90       0.0  T
   2    -36.3506456 -0.882645E-07  0.343E-03   12.90       4.9  T
   3    -36.3506456 -0.255937E-08  0.829E-04   12.90      20.4  T
   4    -36.3506457 -0.876057E-09  0.150E-04   12.90     112.9  T
     SCC iter.                  ...        0 min,  0.003 sec
     gradient                   ...        0 min,  0.003 sec
 * total energy  :   -35.8124103 Eh     change       -0.2068940E-04 Eh
   gradient norm :     0.0007629 Eh/α   predicted    -0.1327978E-04 ( -35.81%)
   displ. norm   :     0.0925056 α      lambda       -0.3422325E-04
   maximum displ.:     0.0511923 α      in ANC's #10, #1, #6, ...

........................................................................
.............................. CYCLE    5 ..............................
........................................................................

 iter      E             dE          RMSdq      gap      omega  full diag
   1    -36.3510887 -0.363511E+02  0.131E-02   12.90       0.0  T
   2    -36.3510889 -0.211341E-06  0.773E-03   12.90       2.2  T
   3    -36.3510890 -0.184358E-07  0.118E-03   12.90      14.3  T
   4    -36.3510890 -0.695003E-08  0.396E-04   12.90      42.7  T
   5    -36.3510890 -0.871950E-09  0.119E-04   12.90     141.8  T
     SCC iter.                  ...        0 min,  0.004 sec
     gradient                   ...        0 min,  0.003 sec
 * total energy  :   -35.8124349 Eh     change       -0.2454486E-04 Eh
   gradient norm :     0.0028835 Eh/α   predicted    -0.1720409E-04 ( -29.91%)
   displ. norm   :     0.0183415 α      lambda       -0.9172662E-05
   maximum displ.:     0.0094320 α      in ANC's #1, #2, #6, ...

........................................................................
.............................. CYCLE    6 ..............................
........................................................................

 iter      E             dE          RMSdq      gap      omega  full diag
   1    -36.3506511 -0.363507E+02  0.307E-03   12.90       0.0  T
   2    -36.3506511 -0.267088E-07  0.173E-03   12.90       9.8  T
   3    -36.3506511 -0.486445E-09  0.451E-04   12.90      37.5  T
   4    -36.3506511 -0.127379E-09  0.587E-05   12.90     287.8  T
     SCC iter.                  ...        0 min,  0.003 sec
     gradient                   ...        0 min,  0.004 sec
 * total energy  :   -35.8124428 Eh     change       -0.7898073E-05 Eh
   gradient norm :     0.0017659 Eh/α   predicted    -0.4591029E-05 ( -41.87%)
   displ. norm   :     0.1038896 α      lambda       -0.2236773E-04
   maximum displ.:     0.0570125 α      in ANC's #1, #2, #6, ...

........................................................................
.............................. CYCLE    7 ..............................
........................................................................

 iter      E             dE          RMSdq      gap      omega  full diag
   1    -36.3491890 -0.363492E+02  0.142E-02   12.90       0.0  T
   2    -36.3491893 -0.353110E-06  0.821E-03   12.90       2.1  T
   3    -36.3491893 -0.805413E-08  0.153E-03   12.90      11.1  T
   4    -36.3491893 -0.262485E-08  0.246E-04   12.90      68.6  T
   5    -36.3491893 -0.427875E-09  0.112E-04   12.90     150.4  T
     SCC iter.                  ...        0 min,  0.004 sec
     gradient                   ...        0 min,  0.003 sec
 * total energy  :   -35.8124565 Eh     change       -0.1369855E-04 Eh
   gradient norm :     0.0025045 Eh/α   predicted    -0.1127037E-04 ( -17.73%)
   displ. norm   :     0.0147425 α      lambda       -0.6235267E-05
   maximum displ.:     0.0086944 α      in ANC's #1, #2, #3, ...

........................................................................
.............................. CYCLE    8 ..............................
........................................................................

 iter      E             dE          RMSdq      gap      omega  full diag
   1    -36.3494686 -0.363495E+02  0.246E-03   12.90       0.0  T
   2    -36.3494686 -0.879873E-08  0.142E-03   12.90      11.9  T
   3    -36.3494686 -0.136197E-09  0.233E-04   12.90      72.7  T
   4    -36.3494686 -0.676721E-10  0.342E-05   12.90     494.1  T
     SCC iter.                  ...        0 min,  0.003 sec
     gradient                   ...        0 min,  0.003 sec
 * total energy  :   -35.8124623 Eh     change       -0.5870277E-05 Eh
   gradient norm :     0.0018876 Eh/α   predicted    -0.3119225E-05 ( -46.86%)
   displ. norm   :     0.3090087 α      lambda       -0.5981384E-04
   maximum displ.:     0.1874131 α      in ANC's #1, #2, #3, ...

........................................................................
.............................. CYCLE    9 ..............................
........................................................................

 iter      E             dE          RMSdq      gap      omega  full diag
   1    -36.3516264 -0.363516E+02  0.428E-02   12.90       0.0  T
   2    -36.3516272 -0.812613E-06  0.252E-02   12.90       1.0  T
   3    -36.3516273 -0.344496E-07  0.171E-03   12.90       9.9  T
   4    -36.3516273 -0.128897E-07  0.513E-04   12.90      33.0  T
   5    -36.3516273 -0.108219E-08  0.259E-04   12.90      65.2  T
     SCC iter.                  ...        0 min,  0.004 sec
     gradient                   ...        0 min,  0.003 sec
 * total energy  :   -35.8125071 Eh     change       -0.4473662E-04 Eh
   gradient norm :     0.0043385 Eh/α   predicted    -0.3117815E-04 ( -30.31%)
   displ. norm   :     0.1162227 α      lambda       -0.2193663E-04
   maximum displ.:     0.0723803 α      in ANC's #1, #2, #3, ...

........................................................................
.............................. CYCLE   10 ..............................
........................................................................

 iter      E             dE          RMSdq      gap      omega  full diag
   1    -36.3512497 -0.363512E+02  0.143E-02   12.90       0.0  T
   2    -36.3512498 -0.270043E-07  0.845E-03   12.90       2.0  T
   3    -36.3512498 -0.432257E-08  0.317E-04   12.90      53.4  T
   4    -36.3512498 -0.342268E-09  0.152E-04   12.90     111.2  T
     SCC iter.                  ...        0 min,  0.004 sec
     gradient                   ...        0 min,  0.003 sec
 * total energy  :   -35.8125272 Eh     change       -0.2012086E-04 Eh
   gradient norm :     0.0035096 Eh/α   predicted    -0.1111895E-04 ( -44.74%)
   displ. norm   :     0.4655411 α      lambda       -0.8140903E-04
   maximum displ.:     0.2941397 α      in ANC's #1, #2, #3, ...

........................................................................
.............................. CYCLE   11 ..............................
........................................................................

 iter      E             dE          RMSdq      gap      omega  full diag
   1    -36.3490411 -0.363490E+02  0.559E-02   12.90       0.0  T
   2    -36.3490417 -0.589621E-06  0.331E-02   12.90       1.0  T
   3    -36.3490418 -0.672826E-07  0.136E-03   12.90      12.4  T
   4    -36.3490418 -0.589765E-08  0.606E-04   12.90      27.9  T
   5    -36.3490418 -0.433225E-09  0.232E-04   12.90      72.9  T
     SCC iter.                  ...        0 min,  0.004 sec
     gradient                   ...        0 min,  0.003 sec
 * total energy  :   -35.8125764 Eh     change       -0.4922159E-04 Eh
   gradient norm :     0.0016109 Eh/α   predicted    -0.4953185E-04 (   0.63%)
   displ. norm   :     0.1932701 α      lambda       -0.1741710E-04
   maximum displ.:     0.1276588 α      in ANC's #1, #2, #3, ...

........................................................................
.............................. CYCLE   12 ..............................
........................................................................

 iter      E             dE          RMSdq      gap      omega  full diag
   1    -36.3493336 -0.363493E+02  0.217E-02   12.90       0.0  T
   2    -36.3493337 -0.623864E-07  0.129E-02   12.90       1.3  T
   3    -36.3493337 -0.111911E-07  0.520E-04   12.90      32.5  T
   4    -36.3493337 -0.104328E-08  0.260E-04   12.90      65.0  T
     SCC iter.                  ...        0 min,  0.003 sec
     gradient                   ...        0 min,  0.003 sec
 * total energy  :   -35.8125949 Eh     change       -0.1849924E-04 Eh
   gradient norm :     0.0021188 Eh/α   predicted    -0.8855047E-05 ( -52.13%)
   displ. norm   :     0.1610766 α      lambda       -0.2006776E-04
   maximum displ.:     0.1096608 α      in ANC's #1, #2, #3, ...

........................................................................
.............................. CYCLE   13 ..............................
........................................................................

 iter      E             dE          RMSdq      gap      omega  full diag
   1    -36.3498662 -0.363499E+02  0.178E-02   12.91       0.0  T
   2    -36.3498663 -0.320168E-07  0.105E-02   12.91       1.6  T
   3    -36.3498663 -0.712478E-08  0.364E-04   12.91      46.5  T
   4    -36.3498663 -0.338069E-09  0.182E-04   12.91      92.8  T
     SCC iter.                  ...        0 min,  0.003 sec
     gradient                   ...        0 min,  0.004 sec
 * total energy  :   -35.8126113 Eh     change       -0.1634944E-04 Eh
   gradient norm :     0.0014032 Eh/α   predicted    -0.1029889E-04 ( -37.01%)
   displ. norm   :     0.3790517 α      lambda       -0.2537051E-04
   maximum displ.:     0.2649792 α      in ANC's #1, #2, #3, ...

........................................................................
.............................. CYCLE   14 ..............................
........................................................................

 iter      E             dE          RMSdq      gap      omega  full diag
   1    -36.3506520 -0.363507E+02  0.414E-02   12.92       0.0  T
   2    -36.3506522 -0.167548E-06  0.245E-02   12.92       1.0  T
   3    -36.3506522 -0.383171E-07  0.840E-04   12.92      20.1  T
   4    -36.3506522 -0.229915E-08  0.418E-04   12.92      40.4  T
     SCC iter.                  ...        0 min,  0.003 sec
     gradient                   ...        0 min,  0.003 sec
 * total energy  :   -35.8126289 Eh     change       -0.1765256E-04 Eh
   gradient norm :     0.0007467 Eh/α   predicted    -0.1349858E-04 ( -23.53%)
   displ. norm   :     0.0386062 α      lambda       -0.3969326E-05
   maximum displ.:     0.0196791 α      in ANC's #2, #6, #4, ...

........................................................................
.............................. CYCLE   15 ..............................
........................................................................

 iter      E             dE          RMSdq      gap      omega  full diag
   1    -36.3510314 -0.363510E+02  0.641E-03   12.92       0.0  T
   2    -36.3510315 -0.152508E-07  0.378E-03   12.92       4.5  T
   3    -36.3510315 -0.167243E-08  0.267E-04   12.92      63.4  T
   4    -36.3510315 -0.301746E-09  0.114E-04   12.92     148.8  T
     SCC iter.                  ...        0 min,  0.003 sec
     gradient                   ...        0 min,  0.003 sec
 * total energy  :   -35.8126333 Eh     change       -0.4371410E-05 Eh
   gradient norm :     0.0009523 Eh/α   predicted    -0.1989819E-05 ( -54.48%)
   displ. norm   :     0.0713758 α      lambda       -0.1362065E-04
   maximum displ.:     0.0373004 α      in ANC's #1, #6, #9, ...

   *** GEOMETRY OPTIMIZATION CONVERGED AFTER 15 ITERATIONS ***

------------------------------------------------------------------------
 total energy gain   :        -0.0026125 Eh       -1.6394 kcal/mol
 total RMSD          :         0.3076320 a0        0.1628 Å
 total power (kW/mol):        -0.4572779 (step)  -40.9997 (real)
------------------------------------------------------------------------

 ANCopt (total)                0 d,  0 h,  0 min,  0.167 sec
 optimizer setup                ...        0 min,  0.002 sec (  1.431%)
 model hessian                  ...        0 min,  0.029 sec ( 17.264%)
 ANC generation                 ...        0 min,  0.002 sec (  0.901%)
 coordinate transformation      ...        0 min,  0.000 sec (  0.138%)
 single point calculation       ...        0 min,  0.125 sec ( 74.808%)
 optimization log               ...        0 min,  0.002 sec (  1.017%)
 hessian update                 ...        0 min,  0.000 sec (  0.106%)
 rational function              ...        0 min,  0.002 sec (  1.475%)

================
 final structure:
================
35
 xtb: 6.6.1 (8d0f1dd)
C           -2.54880778345816        2.58480132096855       -0.21931241694624
C           -2.22945185695237        1.24303809063342        0.42778261817939
C           -2.67966783441151        0.07330702316366       -0.44513983813626
C           -2.51609569167291       -1.29033497598577        0.23011847579449
C           -1.07415722703385       -1.66215647955747        0.58060771525403
C           -0.19430530735829       -1.87602937841648       -0.64852009295483
C            1.25341222368673       -2.22815035974176       -0.30151290546389
C            2.01442711671336       -1.14211564639606        0.46313639398936
C            2.07008366216584        0.19620514296955       -0.27003304904609
C            2.95696452874319        1.20737222810621        0.45193183509757
C            2.94546397607286        2.56340455893772       -0.24359695698411
H           -2.20780352161556        3.40413617292464        0.40982902922873
H           -3.62059825268826        2.69195347939352       -0.37079915893813
H           -2.05835484573743        2.66842049844144       -1.18682155949527
H           -1.15410725197554        1.18385842167861        0.60203764397164
H           -2.72712570846313        1.18003761348062        1.39810002701845
H           -2.12812166518661        0.09137523332510       -1.38677927162636
H           -3.73690039819497        0.20729873309311       -0.68878579323945
H           -2.92895631836888       -2.05803222796046       -0.42941229800760
H           -3.10793146546965       -1.29385779084296        1.14921859138466
H           -1.08662146643621       -2.58483453880743        1.16665338632633
H           -0.64888415277421       -0.88254763076147        1.21125352357732
H           -0.20331447468108       -0.98309921923257       -1.27272464670681
H           -0.61430289899228       -2.69209176854709       -1.24250498537521
H            1.78786618798298       -2.43821375825495       -1.23160864163669
H            1.26254335504604       -3.14295999144864        0.29658444790690
H            1.56390848503121       -0.99635602516456        1.44674897864044
H            3.03585696667538       -1.49564118144318        0.62736726028973
H            2.45101029384741        0.03968058779113       -1.28192782301454
H            1.06577705387656        0.61376037764511       -0.35395613646743
H            2.60617831821480        1.32483392444781        1.47985016727482
H            3.98016382953613        0.82814031896840        0.49460409015603
H            1.93634156629258        2.96862408891386       -0.27102740848855
H            3.30320190775652        2.46999593714440       -1.26641458210449
H            3.58422664982911        3.27053322053360        0.27990638054204
           -------------------------------------------------
          |                Final Singlepoint                |
           -------------------------------------------------

          ...................................................
          :                      SETUP                      :
          :.................................................:
          :  # basis functions                  68          :
          :  # atomic orbitals                  68          :
          :  # shells                           46          :
          :  # electrons                        68          :
          :  max. iterations                   250          :
          :  Hamiltonian                  GFN2-xTB          :
          :  restarted?                      false          :
          :  GBSA solvation                  false          :
          :  PC potential                    false          :
          :  electronic temp.          300.0000000     K    :
          :  accuracy                    1.0000000          :
          :  -> integral cutoff          0.2500000E+02      :
          :  -> integral neglect         0.1000000E-07      :
          :  -> SCF convergence          0.1000000E-05 Eh   :
          :  -> wf. convergence          0.1000000E-03 e    :
          :  Broyden damping             0.4000000          :
          ...................................................

 iter      E             dE          RMSdq      gap      omega  full diag
   1    -36.3510315 -0.363510E+02  0.448E-05   12.92       0.0  T
   2    -36.3510315 -0.559197E-11  0.250E-05   12.92     676.4  T
   3    -36.3510315 -0.639488E-13  0.935E-06   12.92    1808.0  T

   *** convergence criteria satisfied after 3 iterations ***

         #    Occupation            Energy/Eh            Energy/eV
      -------------------------------------------------------------
         1        2.0000           -0.6232212             -16.9587
       ...           ...                  ...                  ...
        28        2.0000           -0.4259395             -11.5904
        29        2.0000           -0.4257250             -11.5846
        30        2.0000           -0.4211465             -11.4600
        31        2.0000           -0.4190373             -11.4026
        32        2.0000           -0.4143530             -11.2751
        33        2.0000           -0.4101321             -11.1603
        34        2.0000           -0.4077077             -11.0943 (HOMO)
        35                          0.0671785               1.8280 (LUMO)
        36                          0.0773562               2.1050
        37                          0.0802345               2.1833
        38                          0.0955131               2.5990
        39                          0.1069646               2.9107
       ...                                ...                  ...
        68                          0.3399506               9.2505
      -------------------------------------------------------------
                  HL-Gap            0.4748862 Eh           12.9223 eV
             Fermi-level           -0.1702646 Eh           -4.6331 eV

 SCC (total)                   0 d,  0 h,  0 min,  0.010 sec
 SCC setup                      ...        0 min,  0.001 sec (  8.968%)
 Dispersion                     ...        0 min,  0.000 sec (  0.987%)
 classical contributions        ...        0 min,  0.000 sec (  0.274%)
 integral evaluation            ...        0 min,  0.001 sec ( 10.106%)
 iterations                     ...        0 min,  0.003 sec ( 25.300%)
 molecular gradient             ...        0 min,  0.004 sec ( 44.472%)
 printout                       ...        0 min,  0.001 sec (  9.551%)

         :::::::::::::::::::::::::::::::::::::::::::::::::::::
         ::                     SUMMARY                     ::
         :::::::::::::::::::::::::::::::::::::::::::::::::::::
         :: total energy             -35.812633286698 Eh    ::
         :: gradient norm              0.000952197769 Eh/a0 ::
         :: HOMO-LUMO gap             12.922311291103 eV    ::
         ::.................................................::
         :: SCC energy               -36.351031454028 Eh    ::
         :: -> isotropic ES            0.006122482594 Eh    ::
         :: -> anisotropic ES          0.011610435043 Eh    ::
         :: -> anisotropic XC          0.021594209689 Eh    ::
         :: -> dispersion             -0.024202729502 Eh    ::
         :: repulsion energy           0.537979778545 Eh    ::
         :: add. restraining           0.000000000000 Eh    ::
         :: total charge              -0.000000000000 e     ::
         :::::::::::::::::::::::::::::::::::::::::::::::::::::

           ------------------------------------------------- 
          |                Numerical Hessian                |
           ------------------------------------------------- 
step length          :   0.00500
SCC accuracy         :   0.30000
Hessian scale factor :   1.00000
frozen atoms in %    :   0.00000    0
RMS gradient         :   0.00095
estimated CPU  time      0.23 min
estimated wall time      0.06 min

writing file <hessian>.

 projected vibrational frequencies (cm⁻¹)
eigval :       -0.00    -0.00    -0.00     0.00     0.00     0.00
eigval :        5.23    25.98    37.50    54.38    67.92   108.08
eigval :      148.55   192.51   200.08   221.44   231.52   246.98
eigval :      260.33   293.37   328.36   400.66   419.46   478.49
eigval :      519.55   746.07   768.73   783.99   812.32   842.69
eigval :      861.09   895.03   914.26   940.56   941.56   969.17
eigval :      982.92  1031.59  1039.06  1068.51  1089.52  1091.87
eigval :     1095.94  1114.01  1137.17  1150.47  1153.27  1158.71
eigval :     1175.66  1213.83  1226.89  1244.76  1269.34  1274.44
eigval :     1278.58  1286.44  1289.30  1292.45  1304.46  1320.56
eigval :     1348.56  1358.80  1364.15  1373.04  1375.69  1377.44
eigval :     1416.13  1417.06  1488.01  1489.84  1492.14  1498.49
eigval :     1499.10  1499.41  1503.19  1505.04  1505.50  1506.06
eigval :     1506.49  1507.90  1509.39  2954.79  2955.56  2958.22
eigval :     2958.73  2959.30  2962.45  2965.00  2971.36  2973.58
eigval :     2976.25  2977.75  2981.13  2987.15  2988.74  2991.39
eigval :     2993.82  3010.47  3014.98  3029.90  3031.18  3031.97
eigval :     3035.14  3037.65  3040.87
           -------------------------------------------------
          |                Property Printout                |
           -------------------------------------------------

    * Orbital Energies and Occupations

         #    Occupation            Energy/Eh            Energy/eV
      -------------------------------------------------------------
         1        2.0000           -0.6232212             -16.9587
       ...           ...                  ...                  ...
        22        2.0000           -0.4601114             -12.5203
        23        2.0000           -0.4533471             -12.3362
        24        2.0000           -0.4497190             -12.2375
        25        2.0000           -0.4450317             -12.1099
        26        2.0000           -0.4372553             -11.8983
        27        2.0000           -0.4346749             -11.8281
        28        2.0000           -0.4259395             -11.5904
        29        2.0000           -0.4257250             -11.5846
        30        2.0000           -0.4211465             -11.4600
        31        2.0000           -0.4190373             -11.4026
        32        2.0000           -0.4143530             -11.2751
        33        2.0000           -0.4101321             -11.1603
        34        2.0000           -0.4077077             -11.0943 (HOMO)
        35                          0.0671785               1.8280 (LUMO)
        36                          0.0773562               2.1050
        37                          0.0802345               2.1833
        38                          0.0955131               2.5990
        39                          0.1069646               2.9107
        40                          0.1133033               3.0831
        41                          0.1195856               3.2541
        42                          0.1276598               3.4738
        43                          0.1353201               3.6822
        44                          0.1480156               4.0277
        45                          0.1513609               4.1187
       ...                                ...                  ...
        68                          0.3399506               9.2505
      -------------------------------------------------------------
                  HL-Gap            0.4748862 Eh           12.9223 eV
             Fermi-level           -0.1702646 Eh           -4.6331 eV

     #   Z          covCN         q      C6AA      α(0)
     1   6 C        3.752    -0.101    22.491     6.763
     2   6 C        3.800    -0.052    21.500     6.602
     3   6 C        3.802    -0.058    21.613     6.619
     4   6 C        3.801    -0.058    21.615     6.619
     5   6 C        3.801    -0.059    21.628     6.621
     6   6 C        3.801    -0.058    21.620     6.620
     7   6 C        3.801    -0.057    21.605     6.618
     8   6 C        3.801    -0.057    21.600     6.617
     9   6 C        3.803    -0.058    21.619     6.620
    10   6 C        3.801    -0.052    21.516     6.604
    11   6 C        3.752    -0.102    22.499     6.764
    12   1 H        0.925     0.031     2.569     2.507
    13   1 H        0.925     0.031     2.569     2.506
    14   1 H        0.925     0.032     2.564     2.504
    15   1 H        0.924     0.032     2.565     2.505
    16   1 H        0.924     0.027     2.623     2.533
    17   1 H        0.924     0.030     2.582     2.513
    18   1 H        0.924     0.027     2.624     2.533
    19   1 H        0.924     0.027     2.627     2.535
    20   1 H        0.924     0.027     2.628     2.535
    21   1 H        0.924     0.025     2.652     2.546
    22   1 H        0.925     0.037     2.493     2.469
    23   1 H        0.925     0.036     2.504     2.475
    24   1 H        0.924     0.025     2.652     2.547
    25   1 H        0.924     0.027     2.625     2.534
    26   1 H        0.924     0.027     2.630     2.536
    27   1 H        0.924     0.029     2.603     2.523
    28   1 H        0.924     0.026     2.645     2.543
    29   1 H        0.924     0.029     2.608     2.525
    30   1 H        0.924     0.034     2.524     2.484
    31   1 H        0.924     0.027     2.632     2.537
    32   1 H        0.924     0.027     2.636     2.539
    33   1 H        0.925     0.033     2.540     2.492
    34   1 H        0.925     0.033     2.549     2.497
    35   1 H        0.925     0.032     2.565     2.504

 Mol. C6AA /au·bohr⁶  :       8064.477608
 Mol. C8AA /au·bohr⁸  :     167833.084981
 Mol. α(0) /au        :        133.489142


Wiberg/Mayer (AO) data.
largest (>0.10) Wiberg bond orders for each atom

 ---------------------------------------------------------------------------
     #   Z sym  total        # sym  WBO       # sym  WBO       # sym  WBO
 ---------------------------------------------------------------------------
     1   6 C    3.997 --     2 C    1.019    14 H    0.988    13 H    0.988
                            12 H    0.988
     2   6 C    3.998 --     1 C    1.019     3 C    1.009    16 H    0.978
                            15 H    0.974
     3   6 C    3.997 --     2 C    1.009     4 C    1.007    18 H    0.977
                            17 H    0.975
     4   6 C    3.998 --     3 C    1.007     5 C    1.007    20 H    0.978
                            19 H    0.977
     5   6 C    3.998 --     6 C    1.010     4 C    1.007    21 H    0.977
                            22 H    0.971
     6   6 C    3.998 --     5 C    1.010     7 C    1.007    24 H    0.977
                            23 H    0.972
     7   6 C    3.997 --     6 C    1.007     8 C    1.006    25 H    0.978
                            26 H    0.978
     8   6 C    3.998 --     9 C    1.008     7 C    1.006    28 H    0.977
                            27 H    0.975
     9   6 C    3.997 --     8 C    1.008    10 C    1.008    29 H    0.978
                            30 H    0.973
    10   6 C    3.998 --    11 C    1.019     9 C    1.008    32 H    0.979
                            31 H    0.979
    11   6 C    3.997 --    10 C    1.019    34 H    0.988    33 H    0.988
                            35 H    0.988
    12   1 H    0.999 --     1 C    0.988
    13   1 H    0.999 --     1 C    0.988
    14   1 H    0.999 --     1 C    0.988
    15   1 H    0.999 --     2 C    0.974
    16   1 H    0.999 --     2 C    0.978
    17   1 H    0.999 --     3 C    0.975
    18   1 H    0.999 --     3 C    0.977
    19   1 H    0.999 --     4 C    0.977
    20   1 H    0.999 --     4 C    0.978
    21   1 H    0.999 --     5 C    0.977
    22   1 H    0.999 --     5 C    0.971
    23   1 H    0.999 --     6 C    0.972
    24   1 H    0.999 --     6 C    0.977
    25   1 H    0.999 --     7 C    0.978
    26   1 H    0.999 --     7 C    0.978
    27   1 H    0.999 --     8 C    0.975
    28   1 H    0.999 --     8 C    0.977
    29   1 H    0.999 --     9 C    0.978
    30   1 H    0.999 --     9 C    0.973
    31   1 H    0.999 --    10 C    0.979
    32   1 H    0.999 --    10 C    0.979
    33   1 H    0.999 --    11 C    0.988
    34   1 H    0.999 --    11 C    0.988
    35   1 H    0.999 --    11 C    0.988
 ---------------------------------------------------------------------------

Topologies differ in total number of bonds
Writing topology from bond orders to xtbtopo.mol

molecular dipole:
                 x           y           z       tot (Debye)
 q only:       -0.006       0.024      -0.009
   full:       -0.004       0.019      -0.008       0.054
molecular quadrupole (traceless):
                xx          xy          yy          xz          yz          zz
 q only:       -0.382       0.044       0.145       0.078      -0.107       0.237
  q+dip:        0.337      -0.177      -1.372      -0.809       0.445       1.035
   full:        0.099      -0.083      -0.622      -0.377       0.188       0.523

           -------------------------------------------------
          |                Geometry Summary                 |
           -------------------------------------------------

      molecular mass/u    :      156.3086729
   center of mass at/Å    :        0.0021191       0.0028041      -0.0007558
  moments of inertia/u·Å² :        0.5085318E+03   0.8373192E+03   0.1252456E+04
rotational constants/cm⁻¹ :        0.3314961E-01   0.2013286E-01   0.1345966E-01

 * 34 selected distances

     #   Z          #   Z                                           value/Å
     1   6 C        2   6 C                                       1.5234990
     2   6 C        3   6 C                                       1.5274028
     3   6 C        4   6 C                                       1.5304410
     4   6 C        5   6 C                                       1.5297977
     5   6 C        6   6 C                                       1.5266423
     6   6 C        7   6 C                                       1.5298005
     7   6 C        8   6 C                                       1.5307854 (max)
     8   6 C        9   6 C                                       1.5270030
     9   6 C       10   6 C                                       1.5265157
    10   6 C       11   6 C                                       1.5240462
     1   6 C       12   1 H                                       1.0878477
     1   6 C       13   1 H                                       1.0877338
     1   6 C       14   1 H                                       1.0879386
     2   6 C       15   1 H                                       1.0909781
     2   6 C       16   1 H                                       1.0923207
     3   6 C       17   1 H                                       1.0914278
     3   6 C       18   1 H                                       1.0931871
     4   6 C       19   1 H                                       1.0930663
     4   6 C       20   1 H                                       1.0931730
     5   6 C       21   1 H                                       1.0931331
     5   6 C       22   1 H                                       1.0892022
     6   6 C       23   1 H                                       1.0895123
     6   6 C       24   1 H                                       1.0932402
     7   6 C       25   1 H                                       1.0930901
     7   6 C       26   1 H                                       1.0930145
     8   6 C       27   1 H                                       1.0916533
     8   6 C       28   1 H                                       1.0932846
     9   6 C       29   1 H                                       1.0924909
     9   6 C       30   1 H                                       1.0908838
    10   6 C       31   1 H                                       1.0924580
    10   6 C       32   1 H                                       1.0920507
    11   6 C       33   1 H                                       1.0877884
    11   6 C       34   1 H                                       1.0875926
    11   6 C       35   1 H                                       1.0872464 (min)

 * 2 distinct bonds (by element types)

   Z      Z             #   av. dist./Å        max./Å        min./Å
   1 H    6 C          24     1.0910131     1.0932846     1.0872464
   6 C    6 C          10     1.5275933     1.5307854     1.5234990

           -------------------------------------------------
          |               Frequency Printout                |
           -------------------------------------------------
 projected vibrational frequencies (cm⁻¹)
eigval :       -0.00    -0.00    -0.00     0.00     0.00     0.00
eigval :        5.23    25.98    37.50    54.38    67.92   108.08
eigval :      148.55   192.51   200.08   221.44   231.52   246.98
eigval :      260.33   293.37   328.36   400.66   419.46   478.49
eigval :      519.55   746.07   768.73   783.99   812.32   842.69
eigval :      861.09   895.03   914.26   940.56   941.56   969.17
eigval :      982.92  1031.59  1039.06  1068.51  1089.52  1091.87
eigval :     1095.94  1114.01  1137.17  1150.47  1153.27  1158.71
eigval :     1175.66  1213.83  1226.89  1244.76  1269.34  1274.44
eigval :     1278.58  1286.44  1289.30  1292.45  1304.46  1320.56
eigval :     1348.56  1358.80  1364.15  1373.04  1375.69  1377.44
eigval :     1416.13  1417.06  1488.01  1489.84  1492.14  1498.49
eigval :     1499.10  1499.41  1503.19  1505.04  1505.50  1506.06
eigval :     1506.49  1507.90  1509.39  2954.79  2955.56  2958.22
eigval :     2958.73  2959.30  2962.45  2965.00  2971.36  2973.58
eigval :     2976.25  2977.75  2981.13  2987.15  2988.74  2991.39
eigval :     2993.82  3010.47  3014.98  3029.90  3031.18  3031.97
eigval :     3035.14  3037.65  3040.87
 reduced masses (amu)
   1:  9.66   2: 10.16   3: 10.04   4:  9.69   5: 10.12   6: 10.27   7:  8.93   8:  8.80
   9:  7.51  10:  6.81  11:  6.06  12:  8.10  13:  8.66  14:  6.79  15:  7.39  16:  4.40
  17:  3.08  18:  5.77  19:  7.94  20:  6.79  21:  7.99  22:  8.67  23:  8.41  24:  8.40
  25:  8.09  26:  2.54  27:  2.17  28:  2.33  29:  3.16  30:  4.57  31:  4.83  32:  5.80
  33:  6.45  34:  5.08  35:  5.83  36:  4.40  37:  6.07  38:  5.36  39:  5.31  40:  7.06
  41:  5.73  42:  6.02  43:  7.29  44:  7.20  45:  8.05  46:  7.90  47:  8.18  48:  6.90
  49:  5.49  50:  5.22  51:  4.57  52:  3.97  53:  3.33  54:  3.25  55:  2.41  56:  1.90
  57:  2.39  58:  2.20  59:  3.64  60:  3.32  61:  4.27  62:  4.61  63:  4.56  64:  5.21
  65:  5.16  66:  5.44  67:  3.18  68:  3.16  69:  1.93  70:  1.86  71:  1.97  72:  1.84
  73:  1.90  74:  1.84  75:  1.93  76:  1.77  77:  1.62  78:  1.55  79:  1.90  80:  1.73
  81:  1.63  82:  1.89  83:  1.93  84:  1.88  85:  1.85  86:  1.85  87:  1.86  88:  1.79
  89:  1.77  90:  1.75  91:  1.62  92:  1.57  93:  1.49  94:  1.71  95:  1.67  96:  1.56
  97:  1.59  98:  1.70  99:  1.65 100:  1.95 101:  1.93 102:  1.94 103:  1.91 104:  1.27
 105:  1.29
 IR intensities (km·mol⁻¹)
   1:  0.00   2:  0.00   3:  0.00   4:  0.00   5:  0.00   6:  0.00   7:  0.00   8:  0.00
   9:  0.00  10:  0.01  11:  0.01  12:  0.01  13:  0.07  14:  0.18  15:  0.01  16:  0.03
  17:  0.07  18:  0.02  19:  0.11  20:  0.77  21:  0.21  22:  0.02  23:  0.05  24:  0.29
  25:  1.11  26:  7.23  27: 24.84  28:  2.72  29:  0.95  30:  0.84  31:  1.10  32:  1.15
  33:  2.15  34:  3.37  35:  1.37  36:  2.11  37:  3.18  38:  1.21  39:  0.11  40:  0.14
  41:  1.47  42:  0.16  43:  0.86  44:  1.40  45:  0.37  46:  0.37  47:  0.25  48:  0.08
  49:  1.04  50:  0.19  51:  1.05  52:  0.04  53:  0.08  54:  0.03  55:  0.69  56:  0.32
  57:  0.24  58:  0.16  59:  1.74  60:  0.26  61:  0.27  62:  5.45  63:  1.83  64:  0.03
  65:  0.05  66:  1.73  67:  0.27  68:  1.28  69:  0.31  70:  0.20  71:  0.04  72:  1.10
  73:  0.55  74:  0.35  75:  0.06  76:  1.07  77:  0.81  78:  3.76  79:  0.28  80:  1.48
  81:  0.37  82:  8.81  83:  7.40  84: 21.37  85: 14.44  86: 48.77  87:  1.10  88: 21.13
  89: 16.72  90: 15.58  91:154.76  92: 96.79  93: 16.85  94: 12.54  95:112.41  96: 34.28
  97: 57.96  98: 60.57  99: 84.98 100: 63.61 101: 77.33 102: 52.07 103: 66.98 104: 30.97
 105: 30.31
 Raman intensities (amu)
   1:  0.00   2:  0.00   3:  0.00   4:  0.00   5:  0.00   6:  0.00   7:  0.00   8:  0.00
   9:  0.00  10:  0.00  11:  0.00  12:  0.00  13:  0.00  14:  0.00  15:  0.00  16:  0.00
  17:  0.00  18:  0.00  19:  0.00  20:  0.00  21:  0.00  22:  0.00  23:  0.00  24:  0.00
  25:  0.00  26:  0.00  27:  0.00  28:  0.00  29:  0.00  30:  0.00  31:  0.00  32:  0.00
  33:  0.00  34:  0.00  35:  0.00  36:  0.00  37:  0.00  38:  0.00  39:  0.00  40:  0.00
  41:  0.00  42:  0.00  43:  0.00  44:  0.00  45:  0.00  46:  0.00  47:  0.00  48:  0.00
  49:  0.00  50:  0.00  51:  0.00  52:  0.00  53:  0.00  54:  0.00  55:  0.00  56:  0.00
  57:  0.00  58:  0.00  59:  0.00  60:  0.00  61:  0.00  62:  0.00  63:  0.00  64:  0.00
  65:  0.00  66:  0.00  67:  0.00  68:  0.00  69:  0.00  70:  0.00  71:  0.00  72:  0.00
  73:  0.00  74:  0.00  75:  0.00  76:  0.00  77:  0.00  78:  0.00  79:  0.00  80:  0.00
  81:  0.00  82:  0.00  83:  0.00  84:  0.00  85:  0.00  86:  0.00  87:  0.00  88:  0.00
  89:  0.00  90:  0.00  91:  0.00  92:  0.00  93:  0.00  94:  0.00  95:  0.00  96:  0.00
  97:  0.00  98:  0.00  99:  0.00 100:  0.00 101:  0.00 102:  0.00 103:  0.00 104:  0.00
 105:  0.00
 output can be read by thermo (or use thermo option).
 writing <g98.out> molden fake output.
 recommended (thermochemical) frequency scaling factor: 1.0
           -------------------------------------------------
          |             Thermodynamic Functions             |
           -------------------------------------------------

Molecule has no symmetry elements
It seems to be the C1 point group
c1  symmetry found (for desy threshold:  0.10E+00) used in thermo

          ...................................................
          :                      SETUP                      :
          :.................................................:
          :  # frequencies                          99      :
          :  # imaginary freq.                       0      :
          :  linear?                             false      :
          :  only rotor calc.                    false      :
          :  symmetry                               c1      :
          :  rotational number                       1      :
          :  scaling factor                  1.0000000      :
          :  rotor cutoff                   50.0000000 cm⁻¹ :
          :  imag. cutoff                  -20.0000000 cm⁻¹ :
          :.................................................:

    mode    ω/cm⁻¹     T·S(HO)/kcal·mol⁻¹    T·S(FR)/kcal·mol⁻¹   T·S(vib)
   ------------------------------------------------------------------------
       1      5.23    -2.77292 (  0.01%)    -1.72447 ( 99.99%)    -1.72459
       2     25.98    -1.82326 (  6.79%)    -1.25033 ( 93.21%)    -1.28923
       3     37.50    -1.60614 ( 24.03%)    -1.14163 ( 75.97%)    -1.25327
       4     54.38    -1.38677 ( 58.33%)    -1.03155 ( 41.67%)    -1.23873
       5     67.92    -1.25599 ( 77.30%)    -0.96571 ( 22.70%)    -1.19010
       6    108.08    -0.98485 ( 95.62%)    -0.82815 (  4.38%)    -0.97798
       7    148.55    -0.80225 ( 98.73%)    -0.73394 (  1.27%)    -0.80139
       8    192.51    -0.65697 ( 99.55%)    -0.65714 (  0.45%)    -0.65697
       9    200.08    -0.63576 ( 99.61%)    -0.64572 (  0.39%)    -0.63580
      10    221.44    -0.58059 ( 99.74%)    -0.61568 (  0.26%)    -0.58068
      11    231.52    -0.55669 ( 99.78%)    -0.60249 (  0.22%)    -0.55679
      12    246.98    -0.52236 ( 99.83%)    -0.58334 (  0.17%)    -0.52246
      13    260.33    -0.49479 ( 99.86%)    -0.56775 (  0.14%)    -0.49489
      14    293.37    -0.43364 ( 99.92%)    -0.53236 (  0.08%)    -0.43373
   ------------------------------------------------------------------------

   temp. (K)  partition function   enthalpy   heat capacity  entropy
                                   cal/mol     cal/K/mol   cal/K/mol   J/K/mol
 298.15  VIB  0.677E+07             7518.677     43.449     49.242
         ROT  0.176E+07              888.752      2.981     31.564
         INT  0.119E+14             8407.429     46.430     80.806
         TR   0.189E+28             1481.254      4.968     41.031
         TOT                        9888.6830    51.3983   121.8365   509.7639

       T/K    H(0)-H(T)+PV         H(T)/Eh          T*S/Eh         G(T)/Eh
   ------------------------------------------------------------------------
    298.15    0.157586E-01    0.344577E+00    0.578885E-01    0.286688E+00
   ------------------------------------------------------------------------

         :::::::::::::::::::::::::::::::::::::::::::::::::::::
         ::                  THERMODYNAMIC                  ::
         :::::::::::::::::::::::::::::::::::::::::::::::::::::
         :: total free energy         -35.525945145868 Eh   ::
         ::.................................................::
         :: total energy              -35.812633286699 Eh   ::
         :: zero point energy           0.328817977190 Eh   ::
         :: G(RRHO) w/o ZPVE           -0.042129836359 Eh   ::
         :: G(RRHO) contrib.            0.286688140830 Eh   ::
         :::::::::::::::::::::::::::::::::::::::::::::::::::::
 
 normal mode %tage of torsion character
   1:  0.00   2:  0.00   3:  0.00   4:  0.00   5:  0.00   6:  0.00   7:  0.44   8:  0.39
   9:  0.60  10:  0.50  11:  0.57  12:  0.55  13:  0.35  14:  0.59  15:  0.55  16:  0.65
  17:  0.83  18:  0.69  19:  0.52  20:  0.52  21:  0.36  22:  0.12  23:  0.19  24:  0.15
  25:  0.26  26:  0.57  27:  0.53  28:  0.48  29:  0.54  30:  0.41  31:  0.41  32:  0.27
  33:  0.23  34:  0.20  35:  0.37  36:  0.37  37:  0.21  38:  0.29  39:  0.42  40:  0.22
  41:  0.16  42:  0.28  43:  0.10  44:  0.17  45:  0.07  46:  0.26  47:  0.24  48:  0.43
  49:  0.11  50:  0.50  51:  0.42  52:  0.28  53:  0.15  54:  0.21  55:  0.24  56:  0.10
  57:  0.16  58:  0.13  59:  0.11  60:  0.09  61:  0.08  62:  0.11  63:  0.08  64:  0.07
  65:  0.08  66:  0.06  67:  0.00  68:  0.00  69:  0.63  70:  0.66  71:  0.65  72:  0.66
  73:  0.65  74:  0.63  75:  0.59  76:  0.68  77:  0.82  78:  0.90  79:  0.70  80:  0.79
  81:  0.86  82:  0.23  83:  0.24  84:  0.20  85:  0.31  86:  0.29  87:  0.21  88:  0.10
  89:  0.21  90:  0.04  91:  0.02  92:  0.01  93:  0.02  94:  0.02  95:  0.02  96:  0.07
  97:  0.03  98:  0.04  99:  0.09 100:  0.06 101:  0.05 102:  0.05 103:  0.04 104:  0.00
 105:  0.00
 recommended # of modes for mode following           4

optimized geometry written to: xtbopt.xyz


           -------------------------------------------------
          | TOTAL ENERGY              -35.812633286699 Eh   |
          | TOTAL ENTHALPY            -35.468056690054 Eh   |
          | TOTAL FREE ENERGY         -35.525945145868 Eh   |
          | GRADIENT NORM               0.000952156745 Eh/α |
          | HOMO-LUMO GAP              12.922311390704 eV   |
           -------------------------------------------------

------------------------------------------------------------------------
 * finished run on 2024/04/23 at 12:10:27.213     
------------------------------------------------------------------------
 total:
 * wall-time:     0 d,  0 h,  0 min,  1.430 sec
 *  cpu-time:     0 d,  0 h,  0 min,  5.190 sec
 * ratio c/w:     3.628 speedup
 SCF:
 * wall-time:     0 d,  0 h,  0 min,  0.058 sec
 *  cpu-time:     0 d,  0 h,  0 min,  0.217 sec
 * ratio c/w:     3.725 speedup
 ANC optimizer:
 * wall-time:     0 d,  0 h,  0 min,  0.197 sec
 *  cpu-time:     0 d,  0 h,  0 min,  0.741 sec
 * ratio c/w:     3.759 speedup
 analytical hessian:
 * wall-time:     0 d,  0 h,  0 min,  0.983 sec
 *  cpu-time:     0 d,  0 h,  0 min,  3.751 sec
 * ratio c/w:     3.817 speedup

