35
 energy: -35.810020767531 gnorm: 0.030349617831 xtb: 6.6.1 (8d0f1dd)
C           -2.28200500000000        2.57636500000000       -0.26207200000000
C           -2.12038700000000        1.23719100000000        0.44059200000000
C           -2.64973600000000        0.06665200000000       -0.39083700000000
C           -2.51414900000000       -1.29427700000000        0.30119600000000
C           -1.06838300000000       -1.70433600000000        0.59776200000000
C           -0.21991800000000       -1.90521500000000       -0.65869800000000
C            1.24316800000000       -2.24949700000000       -0.36263000000000
C            1.99527800000000       -1.16241900000000        0.41258000000000
C            2.03227600000000        0.18748000000000       -0.30492600000000
C            2.78383400000000        1.26311300000000        0.48019600000000
C            2.76778600000000        2.61447400000000       -0.21696700000000
H           -1.90469500000000        3.40565700000000        0.34144400000000
H           -3.33119000000000        2.78265500000000       -0.48429500000000
H           -1.74332400000000        2.59101300000000       -1.21219600000000
H           -1.06260600000000        1.07232500000000        0.68213300000000
H           -2.63311600000000        1.25358500000000        1.41205400000000
H           -2.13593000000000        0.04736500000000       -1.35916400000000
H           -3.70289800000000        0.25517700000000       -0.63935800000000
H           -2.98586300000000       -2.07213500000000       -0.31372600000000
H           -3.09160500000000       -1.27571300000000        1.23512300000000
H           -1.05120100000000       -2.62837500000000        1.19119700000000
H           -0.60347400000000       -0.95095800000000        1.24275300000000
H           -0.26135700000000       -1.00473200000000       -1.28112700000000
H           -0.67535600000000       -2.69115000000000       -1.27610700000000
H            1.77268900000000       -2.44554400000000       -1.30455900000000
H            1.28308600000000       -3.19565200000000        0.19313200000000
H            1.54627900000000       -1.03298700000000        1.40458800000000
H            3.02422200000000       -1.48928200000000        0.61411100000000
H            2.48479200000000        0.06696900000000       -1.29718300000000
H            1.01146500000000        0.53613800000000       -0.49951500000000
H            2.34533100000000        1.35154800000000        1.48367000000000
H            3.81806200000000        0.93433300000000        0.65057000000000
H            1.74574400000000        2.96821600000000       -0.36910900000000
H            3.23721400000000        2.55667900000000       -1.20122900000000
H            3.29788500000000        3.37969300000000        0.35545000000000
35
 energy: -35.812085411572 gnorm: 0.013207696988 xtb: 6.6.1 (8d0f1dd)
C           -2.28663134738109        2.57033595012168       -0.26488681730588
C           -2.12015563525095        1.23545559791408        0.44413418431861
C           -2.64611911399323        0.06947717623398       -0.39261206779794
C           -2.50838300706983       -1.28966819587883        0.29758715195739
C           -1.06602133502157       -1.70052684615897        0.59780319739677
C           -0.22060454513381       -1.90063941237169       -0.65888242308958
C            1.24012492063009       -2.24119423161877       -0.35898587567466
C            1.99332154708705       -1.15537763729675        0.41361197593233
C            2.03145860031465        0.19027780660920       -0.30882825397914
C            2.78559596607861        1.25720463356950        0.48216852575847
C            2.76605437586011        2.60675762428076       -0.21910535486487
H           -1.90645672026826        3.38741592389888        0.34785286734188
H           -3.33611025453639        2.77061163879714       -0.48002556527186
H           -1.74299075799619        2.57835375646193       -1.20994838898809
H           -1.06025364042816        1.08129733682807        0.66667996844336
H           -2.64652954933454        1.25806527137955        1.40480795124076
H           -2.12647185908805        0.04990536587844       -1.35503419988395
H           -3.70399227802667        0.24628547545318       -0.61745312158746
H           -2.97461545413108       -2.05688586385368       -0.33047140431269
H           -3.07190811611927       -1.26604194602788        1.23702462152670
H           -1.06941632888370       -2.63212869640131        1.17493934352741
H           -0.60698598158319       -0.94283471723935        1.23591987444339
H           -0.25502403471728       -1.00008843341158       -1.27540534250149
H           -0.66143279129386       -2.70427361638188       -1.25964522423996
H            1.75962910938403       -2.42663998211844       -1.30571348495953
H            1.28016239315382       -3.17626349541587        0.21075032279415
H            1.53983980947488       -1.02483973819726        1.40072411488493
H            3.02049100957347       -1.49397025124488        0.59020450260171
H            2.49808079886692        0.06392068428135       -1.29165510259651
H            1.01155416636125        0.54350781691392       -0.48359218624613
H            2.33431896116783        1.35555889666646        1.47604078187497
H            3.82132889928749        0.93485447646589        0.63566977506428
H            1.74296189773318        2.95490585686049       -0.36240281635161
H            3.23898008687085        2.54248276289706       -1.19893464376213
H            3.29811820841291        3.35905501210556        0.36251611430637
35
 energy: -35.812389633786 gnorm: 0.002470643453 xtb: 6.6.1 (8d0f1dd)
C           -2.29071033277855        2.57004982447885       -0.26631980133378
C           -2.12029112011524        1.23527080900606        0.44596841518101
C           -2.64591994104094        0.07177608081784       -0.39233973383143
C           -2.50710489831143       -1.28821736456688        0.29495652183197
C           -1.06595572018602       -1.70046234767363        0.59716234734726
C           -0.22106498708172       -1.90041533186967       -0.65872070241708
C            1.23958587005659       -2.23787557371766       -0.35678779806717
C            1.99453436057198       -1.15208871825024        0.41356107948012
C            2.03164641008712        0.19196963087963       -0.30999299583638
C            2.78819837962430        1.25389731746281        0.48361923488692
C            2.76723458788049        2.60456055868300       -0.21967415177628
H           -1.90996316414323        3.38256832880836        0.34923177789501
H           -3.34010867571717        2.76397582612134       -0.47879829130566
H           -1.74653424227842        2.57213756399716       -1.20921255975864
H           -1.06056730612765        1.08760142554632        0.66050800001689
H           -2.65209135847117        1.25969440321946        1.40048403035706
H           -2.12514881087717        0.05482156058385       -1.35167463482347
H           -3.70488581460379        0.24311386641485       -0.60511725024998
H           -2.96930214739289       -2.04900596483037       -0.34010863687678
H           -3.06408628715788       -1.26227480538428        1.23571322132689
H           -1.08023611531631       -2.63516059559010        1.16481037695509
H           -0.60984985316984       -0.94294757551675        1.23321729772192
H           -0.25370332296521       -1.00197604793788       -1.27392347690489
H           -0.65331110927020       -2.71305210498649       -1.24954892120307
H            1.75444486982329       -2.41824371621599       -1.30452071739571
H            1.27971855072289       -3.16550109725993        0.22086396540707
H            1.54170744003036       -1.01917968115864        1.39815881976903
H            3.02006002723952       -1.49533576688659        0.57684971564103
H            2.50325395474134        0.06355376692574       -1.28766267659502
H            1.01406352381537        0.54905460822348       -0.47618569986531
H            2.33222681116591        1.35535154591481        1.47217383206265
H            3.82291192828210        0.93389518422801        0.62931265455693
H            1.74344994956003        2.94724244664053       -0.35872516006830
H            3.23917427113104        2.53473120318117       -1.19770668924006
H            3.30054227227249        3.35082674071177        0.36528160711219
35
 energy: -35.812410323189 gnorm: 0.000762935502 xtb: 6.6.1 (8d0f1dd)
C           -2.29326852688428        2.57098078065126       -0.26669989546156
C           -2.12109491973992        1.23600114203493        0.44700029401984
C           -2.64675758346947        0.07313223569678       -0.39213480064107
C           -2.50767743894558       -1.28803129299989        0.29369074611443
C           -1.06666401337330       -1.70178477441953        0.59688488092962
C           -0.22113435764050       -1.90194306260801       -0.65856573296922
C            1.24015503817691       -2.23789111334821       -0.35569115291459
C            1.99590382880245       -1.15127347750061        0.41337676414335
C            2.03252501302235        0.19269242477755       -0.31038804444020
C            2.79025159014170        1.25325836082712        0.48419346746356
C            2.76896183717158        2.60470814708228       -0.21939544579812
H           -1.91305818124124        3.38409306116218        0.34793411236623
H           -3.34293047592370        2.76268508868208       -0.47868904111903
H           -1.74977445233035        2.57177798039459       -1.20973451208448
H           -1.06137882358783        1.08978846754062        0.66055645565019
H           -2.65257846118528        1.26044093987007        1.40118993701732
H           -2.12722417858903        0.05762424869722       -1.35185645414767
H           -3.70575790399412        0.24406522764576       -0.60275715642566
H           -2.96899566090860       -2.04747065298067       -0.34286279948625
H           -3.06488671741142       -1.26287284332791        1.23385515297162
H           -1.08314794187701       -2.63692922710412        1.16281302020740
H           -0.61064450304579       -0.94552722066623        1.23405695140545
H           -0.25472643730082       -1.00479326885834       -1.27518376710275
H           -0.65137992359433       -2.71636121947556       -1.24747671766786
H            1.75479192642224       -2.41858170163139       -1.30300306357208
H            1.28039939141586       -3.16407899067438        0.22337089390600
H            1.54522571324333       -1.01786009806035        1.39855987737433
H            3.02130604352546       -1.49459354631789        0.57400053972384
H            2.50339450532443        0.06460379651508       -1.28801123564316
H            1.01542732921583        0.55066080894132       -0.47541953798796
H            2.33468419051656        1.35447524851750        1.47247213605385
H            3.82455868414730        0.93298281381580        0.62876596453823
H            1.74493495751884        2.94629612839342       -0.35734682968369
H            3.23960424113412        2.53356194443543       -1.19767918705843
H            3.30287421126358        3.35051964429211        0.36502718031853
35
 energy: -35.812434868047 gnorm: 0.002883548960 xtb: 6.6.1 (8d0f1dd)
C           -2.30253202608616        2.57396131537230       -0.26731569169392
C           -2.12411842152958        1.23914876712316        0.44931866388782
C           -2.64965886750830        0.07706900429856       -0.39097957169929
C           -2.50980437525203       -1.28775750445026        0.28944038202405
C           -1.06945729036576       -1.70587296677931        0.59576029224159
C           -0.22080406885926       -1.90719635907913       -0.65764250860315
C            1.24216971395296       -2.23857039081004       -0.35201731436308
C            2.00039807864627       -1.14948230930232        0.41259600449155
C            2.03538060939928        0.19476483580079       -0.31086938151415
C            2.79729481460259        1.25212428981703        0.48475760378576
C            2.77557184514622        2.60542427551509       -0.21828705626677
H           -1.92438877046843        3.39033736043457        0.34365909772094
H           -3.35344266281480        2.75939627369098       -0.47767919135887
H           -1.76147915116280        2.57242284521317       -1.21145174093497
H           -1.06397531102664        1.09650770021007        0.66110152750232
H           -2.65381866871578        1.26315880186486        1.40394259329408
H           -2.13397318314320        0.06607033296145       -1.35262841132817
H           -3.70911668760964        0.24755351388092       -0.59711933822733
H           -2.96904170180892       -2.04382902326049       -0.35176370498012
H           -3.06963371404953       -1.26639507624708        1.22759237460728
H           -1.09197301690874       -2.64238547547799        1.15814420058276
H           -0.61278112833011       -0.95376342323523        1.23721953832947
H           -0.25790769338288       -1.01376724384403       -1.27938219618326
H           -0.64594756900100       -2.72651317808922       -1.24237856672381
H            1.75701139095955       -2.42239875881635       -1.29805520318504
H            1.28276316262313       -3.16161673783472        0.23091885772483
H            1.55637270499910       -1.01485547168011        1.40039759830798
H            3.02626587390756       -1.49252708761825        0.56700295842293
H            2.50322470062978        0.06805500206782       -1.28965995460950
H            1.01890116525582        0.55480836664429       -0.47327020570579
H            2.34438021360536        1.35210853317843        1.47381241094871
H            3.83095629175793        0.93007314708880        0.62642545418285
H            1.75100271309076        2.94587365311687       -0.35245561366507
H            3.24199043723138        2.53183819660180       -1.19809703633399
H            3.31208859221585        3.35059079164354        0.36381612932136
35
 energy: -35.812442766120 gnorm: 0.001765944817 xtb: 6.6.1 (8d0f1dd)
C           -2.30487322099163        2.57410176817411       -0.26707558894904
C           -2.12499695360203        1.23984213057589        0.44919913981544
C           -2.65006295173095        0.07739876340520       -0.39086536899591
C           -2.50991783465340       -1.28763701674637        0.28859907878303
C           -1.06999692005288       -1.70614053839574        0.59550124389370
C           -0.22044550600969       -1.90782109010149       -0.65725967231199
C            1.24238753917583       -2.23865725342093       -0.35120404488477
C            2.00094721832730       -1.14945765695536        0.41257615790276
C            2.03578792771110        0.19489777803287       -0.31064786036493
C            2.79869121514235        1.25214697166215        0.48411601779870
C            2.77725717940494        2.60533409603909       -0.21817537366990
H           -1.92721419586752        3.39117179774821        0.34346732278451
H           -3.35613443918594        2.75891320752020       -0.47680800573230
H           -1.76441003858590        2.57347357726695       -1.21166594409197
H           -1.06452441719698        1.09762831444168        0.66072213158525
H           -2.65422156648054        1.26343232508126        1.40437662610622
H           -2.13449179199504        0.06691643847693       -1.35276637715607
H           -3.70979569648786        0.24775677285496       -0.59712905136354
H           -2.96889618292519       -2.04336909066891       -0.35359539141889
H           -3.07070090866802       -1.26758360068389        1.22647598839281
H           -1.09324031817784       -2.64280691720097        1.15810898958116
H           -0.61312055965401       -0.95436994676120        1.23745082921225
H           -0.25785118018918       -1.01468624628226       -1.27962774317275
H           -0.64518467376088       -2.72766447202981       -1.24204901018794
H            1.75732266020281       -2.42385502635263       -1.29719567430841
H            1.28300881828783       -3.16157912596469        0.23241164041280
H            1.55747610266696       -1.01487690472865        1.40081910583979
H            3.02711535873763       -1.49260262582498        0.56674660363163
H            2.50289926806142        0.06825162781674       -1.29005901462461
H            1.01901707201445        0.55500797929442       -0.47237307589603
H            2.34690500692256        1.35207889642287        1.47395942047563
H            3.83252611135969        0.92942469586281        0.62495521923460
H            1.75288344770030        2.94714169165138       -0.35128406739436
H            3.24291118128609        2.53240884893832       -1.19852564352559
H            3.31486124921423        3.35013583085181        0.36367439259874
35
 energy: -35.812456464671 gnorm: 0.002504493647 xtb: 6.6.1 (8d0f1dd)
C           -2.31883100475793        2.57503737513269       -0.26534868392671
C           -2.13006099917395        1.24292475522453        0.44851373036520
C           -2.65198664678234        0.07880225635407       -0.39114047005312
C           -2.51042281811456       -1.28731870877653        0.28373760403565
C           -1.07238353446284       -1.70673134380947        0.59434083754654
C           -0.21854973027579       -1.91031106899316       -0.65528865614923
C            1.24340456102333       -2.23909484172060       -0.34651404849874
C            2.00351099744449       -1.14904093733784        0.41308324078650
C            2.03758005242233        0.19549642489077       -0.30964531754514
C            2.80700326522734        1.25138421532710        0.48049139006338
C            2.78717428260237        2.60461117881951       -0.21787751683739
H           -1.94369967452605        3.39501108744361        0.34366544141375
H           -3.37202129950276        2.75570419022661       -0.47129850483702
H           -1.78186144516819        2.57954870211985       -1.21236315453220
H           -1.06796048815157        1.10399222810404        0.65781447654752
H           -2.65678130341250        1.26334292250552        1.40608647048228
H           -2.13622840900662        0.07116848273106       -1.35358638909328
H           -3.71272718071129        0.24782774530906       -0.59810909642664
H           -2.96715348924258       -2.04122080706119       -0.36366342472518
H           -3.07569354092325       -1.27356778415467        1.21998932371164
H           -1.09911842527264       -2.64374885036023        1.15791391028239
H           -0.61520464603924       -0.95593060081395        1.23796350640150
H           -0.25668300685055       -1.01847520266072       -1.28015880234173
H           -0.64110135242104       -2.73253029352708       -1.24003761929373
H            1.75863020639137       -2.43087118997320       -1.29201101116874
H            1.28377026337311       -3.16062144292720        0.24109106734703
H            1.56242914473203       -1.01422960085395        1.40299491190748
H            3.03069021686068       -1.49284649976774        0.56582601916405
H            2.50016635162219        0.06846135270127       -1.29200726245804
H            1.01974415605600        0.55658350198154       -0.46666029128692
H            2.36160370470329        1.35143128869687        1.47414422745708
H            3.84134270536700        0.92490075425536        0.61580016441381
H            1.76397073113556        2.95374019185275       -0.34460220673173
H            3.24790862922720        2.53464382430510       -1.20125763065620
H            3.33145772660737        3.34628269475617        0.36296676463593
35
 energy: -35.812462334948 gnorm: 0.001887596660 xtb: 6.6.1 (8d0f1dd)
C           -2.32078576371350        2.57522302409011       -0.26485703314058
C           -2.13075782801721        1.24269281311602        0.44836183160897
C           -2.65204158996372        0.07863667891035       -0.39185542090143
C           -2.51043442131502       -1.28747004847796        0.28325767207521
C           -1.07224191003859       -1.70624087743917        0.59438236985946
C           -0.21839271958079       -1.90991796266705       -0.65520838765204
C            1.24343184058576       -2.23916499781610       -0.34603442015490
C            2.00342680672152       -1.14890061925088        0.41356177672278
C            2.03753037253752        0.19544204798993       -0.30960037100289
C            2.80816232674749        1.25081973214578        0.48009996805462
C            2.78857079458528        2.60441835129689       -0.21806976708272
H           -1.94586817101523        3.39496408146226        0.34450385516492
H           -3.37415409909791        2.75515652449227       -0.47022205700333
H           -1.78429186737585        2.58041391459703       -1.21207554354708
H           -1.06855408111980        1.10464468579746        0.65711758364818
H           -2.65722000390727        1.26221021767929        1.40593715037721
H           -2.13573054121214        0.07116168516632       -1.35390244590351
H           -3.71259917163446        0.24731543576941       -0.59920166387279
H           -2.96647460722861       -2.04150255731854       -0.36423109273762
H           -3.07589324211113       -1.27367099439635        1.21922590383458
H           -1.09862352971343       -2.64293561461113        1.15818637129310
H           -0.61556807406018       -0.95488535672991        1.23757182353177
H           -0.25598172379977       -1.01797149365273       -1.27981455514484
H           -0.64104814234182       -2.73184586094810       -1.23998365942825
H            1.75879980542889       -2.43101256069371       -1.29127289645413
H            1.28339606609931       -3.16035419195949        0.24185707775440
H            1.56212596089175       -1.01380011922250        1.40323085227551
H            3.03042885514767       -1.49265424248956        0.56640719981408
H            2.49924657523604        0.06796251504028       -1.29214932861512
H            1.01988494272243        0.55707938404741       -0.46573398883251
H            2.36355315290304        1.35099619048170        1.47393306672781
H            3.84231485424842        0.92383973980845        0.61441279555731
H            1.76551208395183        2.95407466801188       -0.34384335195988
H            3.24837319555139        2.53428055876447       -1.20180349908473
H            3.33382185388809        3.34535124900583        0.36266518421844
35
 energy: -35.812507071573 gnorm: 0.004338550499 xtb: 6.6.1 (8d0f1dd)
C           -2.36335080604517        2.57897565952320       -0.25504828310413
C           -2.14637378916297        1.24049270825809        0.44477372140215
C           -2.65430069470580        0.07637725380162       -0.40446545703478
C           -2.51121591789044       -1.28998334503278        0.27214311448634
C           -1.07128682678531       -1.69749114542442        0.59409810351946
C           -0.21439094393573       -1.90424954804279       -0.65279599535103
C            1.24461721134931       -2.24033811878482       -0.33520699462797
C            2.00340237334995       -1.14630061118196        0.42219048449926
C            2.03825118929061        0.19512467198502       -0.30740077164115
C            2.83400916546982        1.24086385017460        0.47148122331601
C            2.81888339679623        2.60004635672568       -0.22136333907704
H           -1.99377404580344        3.39673836990345        0.35931809643407
H           -3.42113825108510        2.74404384090661       -0.44787148531565
H           -1.83684529530122        2.59943683968483       -1.20727212903103
H           -1.08110518206665        1.11945740941287        0.64348745905644
H           -2.66679992150459        1.24199506017076        1.40450914371802
H           -2.12847216041128        0.07311129287991       -1.36043284354307
H           -3.71267300460100        0.23876556855204       -0.61969483193409
H           -2.95467261185656       -2.04621523324125       -0.37925424639003
H           -3.08319099694349       -1.27855552392408        1.20257454402054
H           -1.09305836299232       -2.62918090440505        1.16326915162609
H           -0.62293359053921       -0.93724375989023        1.23150463071140
H           -0.24323482511150       -1.01126852148944       -1.27517761745061
H           -0.63814052418859       -2.72274316441099       -1.23860239406217
H            1.76351075168621       -2.43764840697379       -1.27577912135551
H            1.27723733703981       -3.15596976041345        0.25921475337683
H            1.55975624505403       -1.00638578396553        1.40914796212891
H            3.02864285549663       -1.48920006394462        0.57681363618661
H            2.48203352148049        0.05983344182678       -1.29576883048345
H            1.02292029267994        0.56735542287070       -0.44613423921753
H            2.40707425845552        1.34324386945991        1.47146698835500
H            3.86570080135205        0.90265058392996        0.58565273467259
H            1.79850558942159        2.96283954403315       -0.32659946935504
H            3.25949567392338        2.52795434254118       -1.21329258395860
H            3.38483508808476        3.32782380448470        0.35536788542313
35
 energy: -35.812527192436 gnorm: 0.003509639105 xtb: 6.6.1 (8d0f1dd)
C           -2.37984920306582        2.58001026051690       -0.25160608972006
C           -2.15283631171708        1.24084673115531        0.44319319311497
C           -2.65586113624966        0.07621526436800       -0.40815536574786
C           -2.51166266529516       -1.29030893947365        0.26761420691184
C           -1.07190224081416       -1.69488086648229        0.59326588268923
C           -0.21257678720341       -1.90312835991698       -0.65168228222991
C            1.24532293691798       -2.24027054423024       -0.33098470650236
C            2.00425463914466       -1.14550382323156        0.42489610103361
C            2.03965558584737        0.19544996978462       -0.30553688470335
C            2.84437808484844        1.23800337127572        0.46836335760014
C            2.83053810679941        2.59790800503001       -0.22241797527250
H           -2.01262398629287        3.39815432583229        0.36375503215431
H           -3.43935951610082        2.73983823052217       -0.43979649795436
H           -1.85707601643948        2.60653038208586       -1.20580579905828
H           -1.08619585783625        1.12555338919665        0.63893493953835
H           -2.67073822085537        1.23619598176995        1.40450504801999
H           -2.12747307671147        0.07483800689264       -1.36284354860543
H           -3.71420425012642        0.23655386782086       -0.62620691524085
H           -2.95146737257541       -2.04717018309742       -0.38586223232823
H           -3.08690726852393       -1.28122481555094        1.19629886224570
H           -1.09326228920291       -2.62554538057017        1.16459604077658
H           -0.62565016563223       -0.93267878377230        1.22997173887270
H           -0.23948538354130       -1.01049075169751       -1.27482752243661
H           -0.63608944008196       -2.72176086658530       -1.23793204690934
H            1.76569515637475       -2.44111723996584       -1.27022981013382
H            1.27573767909784       -3.15465333125531        0.26584099465366
H            1.56072988286345       -1.00452060897090        1.41189391518420
H            3.02970113075184       -1.48840848311892        0.57988960905703
H            2.47697720521695        0.05818892483274       -1.29675062548288
H            1.02472290291012        0.57147540889286       -0.43839616606835
H            2.42468379362381        1.34087964055141        1.47160464945818
H            3.87563671335525        0.89539145389693        0.57534065354145
H            1.81117859464764        2.96604442832031       -0.31981353374033
H            3.26393462733890        2.52564397416795       -1.21759829512001
H            3.40399214852722        3.32229736100602        0.35133507240260
35
 energy: -35.812576414028 gnorm: 0.001611028599 xtb: 6.6.1 (8d0f1dd)
C           -2.44626398079223        2.58351829546782       -0.23756717841333
C           -2.17965751258991        1.24187140786670        0.43644909806258
C           -2.66257363501839        0.07527667650498       -0.42337776854931
C           -2.51348965022057       -1.29130193960113        0.24982682610197
C           -1.07415701232691       -1.68334708985069        0.58934983143186
C           -0.20527049097932       -1.89731558967350       -0.64785631011828
C            1.24812672594004       -2.23876723206298       -0.31488587446800
C            2.00753795421501       -1.14242138691587        0.43656955683333
C            2.04641084672835        0.19694301319729       -0.29636560264029
C            2.88708137048329        1.22639938617598        0.45710954796676
C            2.87692414973833        2.58780804995363       -0.22745834819235
H           -2.08841401385694        3.40272187933972        0.38240897209740
H           -3.51226184100920        2.72282011328327       -0.40769188966563
H           -1.93807075646955        2.63450191406520       -1.19920863570302
H           -1.10781632856929        1.14931134878981        0.62100339245291
H           -2.68779281089357        1.21235018640695        1.40379543845707
H           -2.12401667591555        0.08122005883421       -1.37299761724930
H           -3.72084241473900        0.22723774538116       -0.65302281398033
H           -2.93990018690591       -2.05141646972068       -0.41029012179670
H           -3.10053173621233       -1.29030369678989        1.17228214350893
H           -1.09327079556797       -2.61012185623657        1.16925088317702
H           -0.63619964912125       -0.91336373071568        1.22333450021124
H           -0.22468525523642       -1.00607942106690       -1.27418161183282
H           -0.62786764665644       -2.71657846621247       -1.23599203324331