 Entering Gaussian System
 *********************************************
 Gaussian 98:
 frequency output generated by the xtb code
 *********************************************
                         Standard orientation:
 --------------------------------------------------------------------
  Center     Atomic     Atomic              Coordinates (Angstroms)
  Number     Number      Type              X           Y           Z
 --------------------------------------------------------------------
    1          6             0        7.038101   -0.605669    0.128148
    2          6             0        5.592991   -0.781771   -0.321188
    3          6             0        4.700769    0.355367    0.170652
    4          6             0        3.249946    0.180355   -0.271569
    5          6             0        2.361364    1.317723    0.227500
    6          6             0        0.922946    1.233267   -0.284135
    7          6             0        0.134192    0.067344    0.308044
    8          6             0       -1.312728    0.056512   -0.180144
    9          6             0       -2.108234   -1.099998    0.421817
   10          6             0       -3.515855   -1.235944   -0.159442
   11          6             0       -4.440452   -0.078161    0.209574
   12          6             0       -5.859184   -0.293663   -0.312252
   13          6             0       -6.777191    0.868908    0.044506
   14          1             0        7.655206   -1.425428   -0.232662
   15          1             0        7.099442   -0.582200    1.214146
   16          1             0        7.446391    0.326430   -0.256815
   17          1             0        5.554782   -0.823229   -1.412380
   18          1             0        5.208454   -1.731410    0.058585
   19          1             0        5.084152    1.304661   -0.211896
   20          1             0        4.742235    0.399420    1.261835
   21          1             0        2.877677   -0.773209    0.107036
   22          1             0        3.208066    0.143954   -1.363080
   23          1             0        2.793527    2.266713   -0.100840
   24          1             0        2.355918    1.320068    1.320178
   25          1             0        0.933409    1.145697   -1.373352
   26          1             0        0.407825    2.164696   -0.034671
   27          1             0        0.146823    0.140897    1.398347
   28          1             0        0.608010   -0.876634    0.033119
   29          1             0       -1.783387    1.005343    0.083453
   30          1             0       -1.322989   -0.028867   -1.269645
   31          1             0       -2.175525   -0.967998    1.504424
   32          1             0       -1.564705   -2.030530    0.237617
   33          1             0       -3.449346   -1.311732   -1.247609
   34          1             0       -3.957412   -2.166256    0.207789
   35          1             0       -4.049907    0.852575   -0.205552
   36          1             0       -4.468967    0.027643    1.296922
   37          1             0       -6.263331   -1.217560    0.108574
   38          1             0       -5.828749   -0.411744   -1.398100
   39          1             0       -6.836725    0.990370    1.124072
   40          1             0       -6.401621    1.796298   -0.383007
   41          1             0       -7.781089    0.697302   -0.337238
 --------------------------------------------------------------------
     1 basis functions        1 primitive gaussians
     1 alpha electrons        1 beta electrons
 
 Harmonic frequencies (cm**-1), IR intensities (KM/Mole),
 Raman scattering activities (A**4/amu), Raman depolarization ratios,
 reduced masses (AMU), force constants (mDyne/A) and normal coordinates:
                      1                      2                      3
                        a                      a                      a 
 Frequencies --    13.5177                39.0087                28.8640
 Red. masses --    99.0000                99.0000                99.0000
 Frc consts  --    99.0000                99.0000                99.0000
 IR Inten    --    99.0000                99.0000                99.0000
 Raman Activ --     0.0000                 0.0000                 0.0000
 Depolar     --     0.0000                 0.0000                 0.0000
 Atom AN      X      Y      Z        X      Y      Z        X      Y      Z
   1   6     0.00   0.06   0.33    -0.08  -0.16   0.34    -0.14  -0.39   0.09
   2   6     0.04   0.00   0.23     0.06   0.18  -0.25    -0.14  -0.19   0.03
   3   6    -0.01   0.04   0.06    -0.04  -0.05   0.09    -0.01  -0.05  -0.03
   4   6     0.02  -0.02  -0.03     0.05   0.17  -0.31    -0.02   0.10  -0.06
   5   6    -0.02   0.01  -0.18    -0.02  -0.01  -0.04     0.08   0.18  -0.07
   6   6     0.01  -0.05  -0.26    -0.03  -0.00  -0.03     0.05   0.25  -0.02
   7   6     0.01  -0.05  -0.26     0.00  -0.03  -0.05     0.04   0.28   0.02
   8   6     0.00  -0.04  -0.24    -0.00  -0.06  -0.02     0.03   0.25   0.03
   9   6     0.02  -0.07  -0.28     0.01  -0.02   0.08     0.11   0.17  -0.03
  10   6    -0.04   0.03  -0.16    -0.01  -0.05   0.13     0.13   0.07  -0.06
  11   6     0.01  -0.01   0.08     0.03   0.02   0.00    -0.00  -0.07   0.01
  12   6    -0.04   0.08   0.19    -0.00  -0.03   0.11     0.03  -0.20  -0.03
  13   6     0.00   0.03   0.45     0.05   0.06  -0.07    -0.13  -0.36   0.09
  14   1     0.01   0.01   0.13    -0.00   0.01   0.02    -0.07  -0.14   0.04
  15   1    -0.02   0.04   0.10    -0.13  -0.23   0.11    -0.05  -0.11   0.03
  16   1     0.01   0.01   0.08     0.03   0.01   0.30     0.00  -0.13   0.03
  17   1     0.04  -0.03   0.07     0.12   0.23  -0.08    -0.03  -0.06   0.01
  18   1     0.01   0.01   0.08    -0.04  -0.00  -0.26    -0.09  -0.04   0.01
  19   1     0.00   0.00   0.00     0.02   0.04   0.19     0.03  -0.03  -0.02
  20   1    -0.03   0.04   0.02    -0.08  -0.17   0.04    -0.01  -0.01  -0.01
  21   1     0.00   0.00   0.01    -0.02   0.01  -0.23    -0.03   0.04  -0.02
  22   1     0.03  -0.03  -0.01     0.08   0.18  -0.10    -0.00   0.03  -0.02
  23   1    -0.00  -0.00  -0.07    -0.03   0.03   0.05     0.04   0.04  -0.03
  24   1    -0.03   0.03  -0.05    -0.00  -0.07  -0.01     0.03   0.06  -0.02
  25   1     0.02  -0.03  -0.07    -0.01   0.01  -0.01     0.00   0.07  -0.00
  26   1    -0.01  -0.02  -0.09    -0.01  -0.01   0.00     0.03   0.08  -0.00
  27   1     0.01  -0.02  -0.08     0.00  -0.01  -0.01     0.01   0.09   0.01
  28   1    -0.00  -0.02  -0.08     0.01  -0.01  -0.02     0.01   0.08   0.02
  29   1     0.00  -0.01  -0.06     0.00  -0.01  -0.02    -0.00   0.06   0.02
  30   1    -0.01   0.00  -0.07    -0.01  -0.04  -0.01     0.01   0.09   0.01
  31   1     0.03  -0.05  -0.07     0.01   0.02   0.02     0.02   0.04  -0.01
  32   1    -0.01  -0.02  -0.12    -0.00  -0.01   0.04     0.05   0.07  -0.01
  33   1    -0.04   0.05  -0.05    -0.01  -0.06   0.04     0.05   0.05  -0.02
  34   1    -0.00  -0.00  -0.07    -0.01   0.00   0.07     0.07  -0.00  -0.04
  35   1    -0.01   0.01   0.05     0.01  -0.02  -0.04    -0.03   0.00   0.03
  36   1     0.03  -0.05   0.03     0.02   0.05  -0.00    -0.01  -0.04   0.01
  37   1    -0.00   0.00   0.03    -0.00   0.02   0.08     0.04  -0.09  -0.04
  38   1    -0.04   0.07   0.05    -0.02  -0.07   0.04     0.02  -0.02  -0.01
  39   1     0.03  -0.04   0.14     0.03   0.08  -0.03    -0.05  -0.14   0.03
  40   1    -0.01   0.03   0.16     0.02  -0.01  -0.08    -0.07  -0.08   0.06
  41   1    -0.01   0.03   0.15     0.01   0.01   0.00    -0.03  -0.13   0.02
                      4                      5                      6
                        a                      a                      a 
 Frequencies --    55.8280                60.6375                85.7099
 Red. masses --    99.0000                99.0000                99.0000
 Frc consts  --    99.0000                99.0000                99.0000
 IR Inten    --    99.0000                99.0000                99.0000
 Raman Activ --     0.0000                 0.0000                 0.0000
 Depolar     --     0.0000                 0.0000                 0.0000
 Atom AN      X      Y      Z        X      Y      Z        X      Y      Z
   1   6     0.13   0.11   0.07     0.17   0.10  -0.09     0.06   0.08   0.17
   2   6     0.18   0.07  -0.08     0.17   0.02  -0.05     0.11  -0.03   0.05
   3   6     0.06  -0.07   0.02     0.08  -0.13   0.15     0.05   0.03  -0.19
   4   6     0.10  -0.09  -0.08     0.09  -0.13   0.10     0.05  -0.05  -0.16
   5   6     0.06  -0.11  -0.10     0.08  -0.14   0.10     0.05  -0.10  -0.04
   6   6     0.06  -0.14  -0.11     0.12  -0.05  -0.02     0.01  -0.02   0.05
   7   6    -0.02   0.02   0.09    -0.03   0.06  -0.01     0.08  -0.21  -0.22
   8   6    -0.00   0.01   0.04     0.01   0.09  -0.13    -0.12   0.26   0.38
   9   6    -0.09   0.13   0.15    -0.08   0.20  -0.04    -0.04   0.02   0.03
  10   6    -0.06   0.11   0.07    -0.06   0.15  -0.06    -0.03   0.08  -0.01
  11   6    -0.18  -0.03   0.20    -0.08   0.19  -0.24    -0.06   0.04   0.01
  12   6    -0.01   0.14  -0.31    -0.19  -0.17   0.21    -0.06  -0.05   0.03
  13   6    -0.23  -0.14   0.05    -0.27  -0.19   0.07    -0.11  -0.05  -0.11
  14   1     0.07   0.06  -0.01     0.07   0.06  -0.07     0.03   0.01   0.11
  15   1     0.01  -0.02   0.02     0.07  -0.01  -0.03    -0.01   0.08   0.05
  16   1     0.03   0.06   0.07     0.02   0.06   0.01     0.02   0.01   0.01
  17   1     0.08   0.07  -0.03     0.03   0.05  -0.01     0.06  -0.06   0.02
  18   1     0.06  -0.01  -0.08     0.08  -0.02  -0.05     0.03   0.01   0.05
  19   1     0.01   0.00   0.05     0.01  -0.01   0.09     0.01  -0.01  -0.10
  20   1    -0.00  -0.06   0.01     0.02  -0.09   0.04     0.01   0.06  -0.06
  21   1     0.02  -0.03  -0.04     0.02  -0.04   0.02     0.03  -0.02  -0.05
  22   1     0.05  -0.02  -0.03     0.04  -0.03   0.03     0.00  -0.00  -0.05
  23   1     0.01  -0.03  -0.03     0.04  -0.04   0.05     0.01  -0.02   0.01
  24   1     0.02  -0.03  -0.03     0.00  -0.05   0.03     0.03  -0.06  -0.01
  25   1     0.02  -0.09  -0.03     0.06  -0.03  -0.00    -0.03   0.09   0.01
  26   1     0.03  -0.02  -0.08     0.05   0.00  -0.03     0.00  -0.03   0.11
  27   1    -0.01   0.06   0.02    -0.04   0.04  -0.00     0.16  -0.22  -0.05
  28   1    -0.02  -0.02   0.08    -0.02   0.00   0.04    -0.05  -0.04  -0.26
  29   1     0.01   0.02  -0.03     0.01   0.04  -0.08     0.03   0.05   0.32
  30   1     0.01  -0.04   0.01     0.03  -0.01  -0.04    -0.17   0.26   0.10
  31   1    -0.04   0.08   0.04    -0.03   0.10  -0.02    -0.01  -0.10   0.02
  32   1    -0.03   0.03   0.09    -0.03   0.05   0.03     0.00   0.03  -0.08
  33   1     0.00   0.09   0.02    -0.01  -0.00  -0.01     0.00   0.04  -0.00
  34   1    -0.00   0.01  -0.03    -0.02   0.06   0.02    -0.01   0.01  -0.02
  35   1    -0.02   0.04   0.19    -0.08   0.03  -0.19    -0.03   0.02  -0.00
  36   1    -0.15  -0.12   0.07     0.05   0.16  -0.08    -0.01   0.02   0.00
  37   1    -0.01  -0.04  -0.27     0.01  -0.02   0.18    -0.01  -0.01   0.04
  38   1     0.09   0.21  -0.11    -0.14  -0.15   0.07    -0.01  -0.05   0.01
  39   1    -0.17  -0.22   0.03     0.01   0.05   0.01    -0.03   0.03  -0.04
  40   1    -0.05   0.04   0.21    -0.16  -0.08  -0.11    -0.05  -0.03  -0.07
  41   1    -0.03  -0.00  -0.11    -0.10  -0.14   0.12    -0.03  -0.04  -0.02
                      7                      8                      9
                        a                      a                      a 
 Frequencies --   104.2738                97.0605               112.1311
 Red. masses --    99.0000                99.0000                99.0000
 Frc consts  --    99.0000                99.0000                99.0000
 IR Inten    --    99.0000                99.0000                99.0000
 Raman Activ --     0.0000                 0.0000                 0.0000
 Depolar     --     0.0000                 0.0000                 0.0000
 Atom AN      X      Y      Z        X      Y      Z        X      Y      Z
   1   6     0.00  -0.10  -0.05    -0.01  -0.04   0.19    -0.08   0.00  -0.05
   2   6    -0.06  -0.05   0.12     0.05  -0.01   0.01    -0.08   0.05  -0.05
   3   6     0.08   0.13  -0.05     0.08   0.18  -0.36    -0.09  -0.04   0.14
   4   6     0.07   0.20  -0.07     0.05   0.08  -0.23    -0.09  -0.04   0.15
   5   6    -0.01  -0.00   0.24     0.02  -0.05   0.01    -0.06   0.07  -0.08
   6   6     0.03   0.07   0.12    -0.04  -0.09   0.19    -0.05  -0.02  -0.09
   7   6     0.10  -0.21  -0.32    -0.04  -0.01   0.35     0.07  -0.13  -0.15
   8   6     0.09  -0.17  -0.31     0.05  -0.15   0.08    -0.02  -0.00   0.15
   9   6    -0.01   0.11   0.10    -0.09  -0.07   0.04     0.02  -0.01   0.19
  10   6    -0.06   0.03   0.23    -0.03   0.02  -0.14     0.06  -0.06   0.11
  11   6    -0.06   0.08   0.06     0.04   0.13  -0.30     0.18   0.19  -0.37
  12   6    -0.01   0.04  -0.06    -0.03   0.06  -0.07     0.14   0.12  -0.23
  13   6    -0.15  -0.08  -0.01    -0.05  -0.03   0.19     0.03  -0.12   0.26
  14   1    -0.04  -0.09   0.04    -0.01  -0.06   0.15    -0.02   0.03  -0.07
  15   1     0.03   0.06  -0.02    -0.05   0.07   0.06    -0.01  -0.07  -0.01
  16   1     0.03  -0.08  -0.10     0.05  -0.05   0.01    -0.04   0.03   0.04
  17   1    -0.05  -0.08   0.04     0.06  -0.08   0.00    -0.03   0.07  -0.02
  18   1    -0.03   0.02   0.10    -0.03   0.03   0.05    -0.02  -0.00  -0.06
  19   1     0.05   0.01  -0.05     0.03   0.01  -0.20    -0.04   0.01   0.07
  20   1     0.02   0.07  -0.02     0.03   0.15  -0.11    -0.02  -0.05   0.04
  21   1     0.04   0.02  -0.09     0.05   0.00  -0.08    -0.04   0.01   0.09
  22   1     0.02   0.14  -0.02    -0.02   0.05  -0.07    -0.02  -0.07   0.04
  23   1    -0.01   0.04   0.17    -0.03   0.00   0.02    -0.01   0.00  -0.08
  24   1    -0.02  -0.10   0.07     0.05  -0.05   0.00    -0.02   0.08  -0.02
  25   1     0.03   0.13   0.03    -0.04  -0.06   0.06    -0.01   0.01  -0.03
  26   1    -0.02  -0.02   0.13    -0.00  -0.02   0.04    -0.04  -0.02  -0.01
  27   1     0.02  -0.16  -0.09    -0.07   0.07   0.10     0.09  -0.10  -0.04
  28   1     0.05  -0.02  -0.18     0.02  -0.01   0.19    -0.00  -0.02  -0.12
  29   1     0.06  -0.01  -0.17    -0.01  -0.04  -0.05     0.03  -0.00   0.10
  30   1     0.01  -0.14  -0.08     0.08  -0.09   0.02    -0.07   0.03   0.04
  31   1     0.02   0.14   0.02    -0.06  -0.00   0.01    -0.01   0.02   0.05
  32   1    -0.03  -0.00   0.11    -0.04  -0.04   0.05     0.01  -0.00   0.08
  33   1    -0.04  -0.05   0.07     0.03  -0.02  -0.04     0.04  -0.14   0.04
  34   1    -0.01   0.03   0.12    -0.04   0.02  -0.04    -0.02   0.04   0.12
  35   1    -0.00   0.01   0.01     0.00   0.01  -0.15     0.07  -0.01  -0.22
  36   1    -0.04   0.05   0.02     0.05   0.10  -0.09     0.06   0.18  -0.12
  37   1     0.01  -0.01  -0.05     0.03   0.00  -0.02     0.10  -0.01  -0.12
  38   1     0.02   0.04  -0.02    -0.06   0.04  -0.02    -0.00   0.12  -0.08
  39   1    -0.08  -0.07  -0.00     0.04  -0.04   0.06     0.03  -0.15   0.09
  40   1    -0.05   0.00   0.05    -0.06   0.01   0.06    -0.03   0.02   0.17
  41   1    -0.02  -0.03  -0.05    -0.03  -0.02   0.10     0.01  -0.03   0.08
                     10                     11                     12
                        a                      a                      a 
 Frequencies --   120.5793               234.3215               144.9498
 Red. masses --    99.0000                99.0000                99.0000
 Frc consts  --    99.0000                99.0000                99.0000
 IR Inten    --    99.0000                99.0000                99.0000
 Raman Activ --     0.0000                 0.0000                 0.0000
 Depolar     --     0.0000                 0.0000                 0.0000
 Atom AN      X      Y      Z        X      Y      Z        X      Y      Z
   1   6    -0.03  -0.21   0.15     0.02   0.01  -0.04     0.08  -0.28  -0.20
   2   6     0.05   0.19  -0.26    -0.04  -0.11   0.21    -0.05   0.09   0.10
   3   6     0.12   0.23  -0.23     0.03   0.08  -0.11     0.16   0.21   0.23
   4   6    -0.03  -0.13   0.40     0.02   0.04  -0.07     0.20   0.31   0.05
   5   6     0.01   0.05   0.06    -0.02  -0.04   0.04    -0.02   0.19  -0.10
   6   6     0.03  -0.03   0.00    -0.00  -0.01  -0.02     0.01  -0.24  -0.17
   7   6     0.04  -0.08  -0.08    -0.04   0.02  -0.01     0.07  -0.17   0.07
   8   6     0.03  -0.04  -0.08    -0.04   0.01  -0.00     0.02  -0.09   0.20
   9   6    -0.01   0.02  -0.03     0.01  -0.02  -0.01    -0.09  -0.12   0.01
  10   6    -0.03   0.04   0.01    -0.01  -0.01   0.05    -0.06   0.08  -0.11
  11   6    -0.05   0.00   0.08     0.01  -0.00   0.06    -0.08   0.04   0.00
  12   6    -0.04  -0.01   0.04     0.06   0.06  -0.09    -0.09   0.01   0.03
  13   6    -0.06  -0.00  -0.06    -0.01  -0.02   0.01    -0.12   0.01  -0.04
  14   1    -0.02  -0.04  -0.01     0.09   0.25  -0.42    -0.07  -0.13  -0.10
  15   1    -0.08  -0.20   0.05     0.12  -0.44  -0.01     0.09  -0.08  -0.06
  16   1     0.06  -0.03   0.19    -0.18   0.22   0.33     0.07  -0.12  -0.09
  17   1     0.09   0.12  -0.08    -0.05  -0.12   0.06    -0.07   0.04   0.03
  18   1    -0.06   0.05  -0.16    -0.00  -0.00   0.15    -0.05   0.04   0.04
  19   1    -0.05   0.05  -0.19     0.02  -0.02  -0.12     0.09   0.06   0.10
  20   1     0.16   0.16  -0.08     0.01   0.12  -0.03     0.03   0.02   0.07
  21   1     0.06   0.01   0.31     0.02   0.00  -0.04     0.04   0.08  -0.02
  22   1    -0.12  -0.22   0.13    -0.00   0.03  -0.02     0.11   0.10   0.01
  23   1     0.01  -0.02  -0.06    -0.01   0.00   0.05    -0.07   0.07  -0.06
  24   1    -0.01   0.11   0.02    -0.02  -0.05   0.01    -0.02   0.10  -0.03
  25   1     0.03  -0.00   0.00     0.01  -0.01  -0.01     0.03  -0.16  -0.04
  26   1    -0.01  -0.02  -0.00     0.00   0.00  -0.02    -0.05  -0.07  -0.14
  27   1     0.01  -0.05  -0.02    -0.01   0.02  -0.00     0.06  -0.02   0.02
  28   1     0.01  -0.02  -0.05    -0.01   0.00   0.01    -0.00  -0.06   0.03
  29   1     0.02  -0.00  -0.03    -0.01  -0.00   0.01     0.02  -0.03   0.10
  30   1     0.01  -0.02  -0.02    -0.01   0.01  -0.00    -0.01   0.02   0.05
  31   1     0.00   0.02  -0.01     0.02  -0.02  -0.00    -0.04  -0.08   0.01
  32   1    -0.02  -0.00  -0.00     0.00  -0.00  -0.02    -0.04  -0.04  -0.03
  33   1    -0.02   0.03   0.00    -0.01  -0.01   0.01     0.00   0.08  -0.04
  34   1    -0.00   0.01  -0.01    -0.00  -0.00   0.02    -0.04   0.01  -0.09
  35   1    -0.02   0.01   0.04     0.02   0.01   0.05    -0.03   0.02   0.01
  36   1    -0.02  -0.02   0.02    -0.03  -0.03   0.02    -0.01  -0.01   0.00
  37   1    -0.01   0.00   0.02     0.02  -0.00  -0.07    -0.02   0.01   0.03
  38   1     0.00  -0.02   0.01     0.04   0.06  -0.03    -0.03  -0.02   0.01
  39   1    -0.03   0.02  -0.02     0.17   0.10   0.00    -0.02   0.04  -0.01
  40   1    -0.02  -0.01  -0.03    -0.14  -0.03  -0.16    -0.05  -0.00  -0.05
  41   1    -0.01  -0.01  -0.02    -0.06  -0.12   0.19    -0.04  -0.02   0.01
                     13                     14                     15
                        a                      a                      a 
 Frequencies --   237.4281               176.2633               205.0765
 Red. masses --    99.0000                99.0000                99.0000
 Frc consts  --    99.0000                99.0000                99.0000
 IR Inten    --    99.0000                99.0000                99.0000
 Raman Activ --     0.0000                 0.0000                 0.0000
 Depolar     --     0.0000                 0.0000                 0.0000
 Atom AN      X      Y      Z        X      Y      Z        X      Y      Z
   1   6    -0.11   0.05  -0.01    -0.14   0.15   0.03    -0.00   0.03   0.00
   2   6    -0.12  -0.02   0.06    -0.10  -0.05  -0.01    -0.00  -0.03   0.01
   3   6    -0.05   0.07  -0.07    -0.16  -0.13   0.02    -0.02  -0.05   0.03
   4   6    -0.04   0.02  -0.03    -0.13  -0.05  -0.05    -0.01   0.00  -0.01
   5   6    -0.07  -0.10   0.12     0.03   0.12  -0.17     0.07   0.11  -0.11
   6   6     0.04  -0.14  -0.11    -0.05   0.01   0.14    -0.01   0.06   0.10
   7   6     0.04  -0.06  -0.01     0.21  -0.19   0.09     0.13  -0.12  -0.06
   8   6     0.05   0.04   0.03     0.25  -0.24   0.00     0.09  -0.05   0.02
   9   6    -0.01   0.13   0.09     0.06  -0.10  -0.02    -0.14   0.23   0.28
  10   6     0.12   0.12  -0.17     0.06   0.29  -0.10     0.08  -0.02  -0.23
  11   6     0.07   0.04  -0.06     0.08   0.24   0.15    -0.17  -0.28  -0.10
  12   6     0.01  -0.13   0.20     0.12   0.05   0.10    -0.21  -0.11  -0.07
  13   6     0.09  -0.01  -0.03    -0.19  -0.12  -0.13     0.17   0.14   0.12
  14   1     0.01   0.11  -0.15     0.01   0.09  -0.01     0.02   0.03  -0.03
  15   1     0.00  -0.15  -0.00    -0.05   0.02   0.01     0.00  -0.02   0.00
  16   1    -0.11   0.10   0.12    -0.09   0.08   0.04    -0.02   0.03   0.03
  17   1    -0.05  -0.05   0.02    -0.02  -0.00  -0.00    -0.00  -0.00   0.00
  18   1    -0.03   0.01   0.06     0.00  -0.03  -0.01     0.01  -0.01   0.00
  19   1    -0.01   0.00  -0.06    -0.04  -0.03   0.04     0.00  -0.01   0.02
  20   1    -0.01   0.06  -0.02    -0.06  -0.06   0.01    -0.01  -0.02   0.01
  21   1     0.01  -0.01  -0.04    -0.07   0.01   0.02    -0.02   0.02   0.02
  22   1    -0.02   0.04  -0.01    -0.03  -0.05  -0.01     0.00  -0.03  -0.00
  23   1    -0.02  -0.01   0.11    -0.00   0.01  -0.15     0.01   0.01  -0.10
  24   1    -0.06  -0.09   0.03     0.07   0.12  -0.05     0.06   0.09  -0.03
  25   1     0.06  -0.09  -0.03    -0.08   0.05   0.04    -0.05   0.09   0.02
  26   1    -0.01  -0.04  -0.10    -0.04  -0.03   0.11    -0.01  -0.01   0.11
  27   1     0.02   0.00  -0.00     0.06  -0.08   0.03     0.06  -0.10  -0.01
  28   1    -0.01  -0.03   0.01     0.09  -0.03  -0.00     0.04  -0.01  -0.09
  29   1     0.04   0.02  -0.00     0.07  -0.06  -0.04     0.07   0.03  -0.07
  30   1     0.01  -0.00   0.01     0.10  -0.10   0.00     0.02  -0.09   0.01
  31   1    -0.06   0.08   0.02     0.02  -0.04  -0.01    -0.17   0.21   0.05
  32   1     0.01   0.03   0.09    -0.04  -0.06  -0.02    -0.01   0.05   0.27
  33   1     0.08   0.09  -0.05     0.03   0.17  -0.03     0.12   0.08  -0.07
  34   1     0.02   0.01  -0.12    -0.02   0.07  -0.12     0.05  -0.06  -0.17
  35   1    -0.03   0.01  -0.06    -0.00   0.09   0.08    -0.07  -0.04   0.04
  36   1     0.08   0.04  -0.02     0.03   0.02   0.05    -0.06  -0.15  -0.02
  37   1     0.01  -0.01   0.14     0.07   0.01   0.05    -0.11  -0.01  -0.01
  38   1    -0.03  -0.12   0.07     0.06  -0.02   0.03    -0.10  -0.02  -0.02
  39   1    -0.30  -0.19  -0.00    -0.07   0.02  -0.04     0.19   0.10   0.04
  40   1     0.27   0.03   0.28    -0.13  -0.03  -0.09     0.06  -0.00  -0.05
  41   1     0.12   0.19  -0.35    -0.04  -0.14  -0.03    -0.01   0.09   0.17
                     16                     17                     18
                        a                      a                      a 
 Frequencies --   225.3659               300.7932               335.1316
 Red. masses --    99.0000                99.0000                99.0000
 Frc consts  --    99.0000                99.0000                99.0000
 IR Inten    --    99.0000                99.0000                99.0000
 Raman Activ --     0.0000                 0.0000                 0.0000
 Depolar     --     0.0000                 0.0000                 0.0000
 Atom AN      X      Y      Z        X      Y      Z        X      Y      Z
   1   6     0.16  -0.03  -0.02    -0.26   0.19   0.06     0.13   0.02   0.04
   2   6     0.13  -0.08   0.08    -0.13  -0.17  -0.13     0.16  -0.17  -0.07
   3   6     0.10  -0.06   0.03     0.01  -0.12  -0.08     0.10  -0.16  -0.09
   4   6     0.07   0.02  -0.02    -0.01   0.13   0.06    -0.03   0.10   0.10
   5   6     0.15   0.19  -0.23     0.13   0.15   0.18    -0.07   0.12   0.15
   6   6    -0.04   0.20   0.22     0.27  -0.09  -0.12    -0.02   0.30  -0.22
   7   6     0.01   0.04   0.05     0.27  -0.02   0.05     0.00   0.23  -0.19
   8   6    -0.00  -0.06  -0.03     0.22   0.01   0.08    -0.12  -0.27   0.15
   9   6    -0.03  -0.13  -0.12     0.11  -0.04  -0.10    -0.09  -0.30   0.25
  10   6    -0.15  -0.14   0.10    -0.05  -0.09   0.13     0.01  -0.00  -0.14
  11   6    -0.11  -0.03  -0.10    -0.19  -0.10  -0.07     0.05   0.03  -0.03
  12   6    -0.19  -0.01   0.05    -0.24   0.01  -0.08    -0.00   0.08   0.06
  13   6    -0.10   0.08  -0.00    -0.11   0.11   0.03    -0.11   0.03  -0.02
  14   1     0.07   0.07  -0.14     0.02   0.11   0.07     0.08   0.03   0.04
  15   1     0.09  -0.16  -0.00    -0.14   0.08   0.02     0.01   0.02   0.01
  16   1    -0.02   0.06   0.11    -0.14   0.09   0.02     0.01   0.02   0.01
  17   1     0.02  -0.04   0.02    -0.02  -0.05  -0.04     0.07  -0.06  -0.02
  18   1     0.05  -0.02   0.04    -0.02  -0.05  -0.03     0.07  -0.06  -0.02
  19   1     0.04  -0.02   0.01     0.03  -0.05  -0.03     0.05  -0.06  -0.03
  20   1     0.02  -0.01   0.01     0.03  -0.04  -0.02     0.06  -0.05  -0.03
  21   1    -0.01   0.04   0.04    -0.03   0.04   0.00    -0.02   0.03   0.02
  22   1     0.03  -0.05  -0.01    -0.03   0.07   0.02    -0.04   0.04   0.03
  23   1     0.02   0.02  -0.19     0.04   0.05   0.08     0.02   0.05   0.14
  24   1     0.13   0.16  -0.06    -0.00   0.02   0.05    -0.11  -0.04   0.04
  25   1    -0.10   0.15   0.05     0.16  -0.13  -0.03     0.05   0.08  -0.06
  26   1     0.01   0.04   0.18     0.02  -0.02  -0.16    -0.00   0.09  -0.09
  27   1    -0.01  -0.03   0.02     0.09   0.03   0.01     0.05   0.09  -0.05
  28   1     0.03   0.03  -0.02     0.06  -0.02   0.04     0.05   0.09  -0.05
  29   1    -0.02  -0.03  -0.00     0.07  -0.00   0.06    -0.08  -0.10   0.03
  30   1     0.02  -0.00  -0.01     0.07   0.05   0.02    -0.08  -0.11   0.05
  31   1     0.04  -0.08  -0.03     0.08  -0.07  -0.02    -0.08  -0.07   0.06
  32   1    -0.02  -0.04  -0.09     0.01  -0.01  -0.10    -0.04  -0.10   0.10
  33   1    -0.09  -0.13   0.03    -0.05  -0.10   0.04     0.09   0.10  -0.04
  34   1    -0.03  -0.01   0.12     0.03  -0.01   0.12    -0.06  -0.02  -0.16
  35   1    -0.03  -0.04  -0.10    -0.04  -0.04  -0.04     0.01   0.01   0.00
  36   1    -0.01   0.07  -0.04    -0.07   0.00  -0.02     0.03  -0.01  -0.00
  37   1    -0.06   0.01   0.04    -0.09   0.01  -0.03     0.01   0.02   0.03
  38   1    -0.08  -0.03   0.02    -0.08   0.02  -0.03    -0.01   0.01   0.02
  39   1    -0.23  -0.12   0.00     0.00   0.03   0.01    -0.07   0.01  -0.01
  40   1     0.13   0.05   0.20    -0.02   0.02   0.00    -0.05   0.02  -0.00
  41   1     0.03   0.16  -0.22    -0.05   0.06   0.04    -0.02  -0.03  -0.03
                     19                     20                     21
                        a                      a                      a 
 Frequencies --   356.6522               403.9249               422.6987
 Red. masses --    99.0000                99.0000                99.0000
 Frc consts  --    99.0000                99.0000                99.0000
 IR Inten    --    99.0000                99.0000                99.0000
 Raman Activ --     0.0000                 0.0000                 0.0000
 Depolar     --     0.0000                 0.0000                 0.0000
 Atom AN      X      Y      Z        X      Y      Z        X      Y      Z
   1   6    -0.02  -0.09  -0.06    -0.11   0.04  -0.00    -0.36   0.11  -0.02
   2   6    -0.11   0.29   0.15    -0.08  -0.01  -0.02    -0.24  -0.02  -0.07
   3   6    -0.17   0.21   0.09     0.05   0.04   0.03     0.20   0.12   0.12
   4   6    -0.03  -0.28  -0.12     0.09  -0.00   0.00     0.34  -0.06   0.02
   5   6     0.06  -0.30  -0.05     0.09  -0.02  -0.03     0.29  -0.13  -0.09
   6   6     0.09   0.21  -0.10     0.06  -0.07   0.06     0.19   0.06   0.05
   7   6     0.22   0.18  -0.02    -0.06  -0.02   0.00    -0.10   0.11  -0.09
   8   6     0.18  -0.11   0.12    -0.06   0.10  -0.04    -0.19  -0.09   0.00
   9   6     0.13  -0.14   0.06     0.00   0.08   0.04    -0.18  -0.12   0.06
  10   6     0.07  -0.02   0.02     0.11  -0.37  -0.16    -0.15   0.05  -0.02
  11   6    -0.09  -0.06  -0.07     0.26  -0.21  -0.02    -0.01   0.10   0.04
  12   6    -0.17   0.05  -0.02     0.07   0.32   0.19     0.08  -0.08  -0.02
  13   6    -0.15   0.10   0.01    -0.38   0.12  -0.05     0.15  -0.08  -0.00
  14   1    -0.10  -0.08  -0.07    -0.01   0.02   0.01    -0.03   0.07   0.03
  15   1     0.06  -0.06  -0.02    -0.05   0.02  -0.00    -0.15   0.06  -0.00
  16   1     0.06  -0.06  -0.02    -0.05   0.02   0.00    -0.15   0.06   0.00
  17   1    -0.06   0.09   0.04    -0.03   0.00  -0.01    -0.10   0.01  -0.02
  18   1    -0.06   0.09   0.04    -0.03   0.00  -0.00    -0.10   0.01  -0.02
  19   1    -0.11   0.08   0.01     0.02   0.01   0.01     0.08   0.02   0.03
  20   1    -0.09   0.08   0.02     0.02   0.00   0.01     0.08   0.02   0.03
  21   1     0.04  -0.10  -0.04     0.03  -0.00   0.00     0.12  -0.03   0.02
  22   1     0.02  -0.08  -0.04     0.04  -0.01  -0.00     0.14  -0.04   0.01
  23   1     0.10  -0.09   0.08     0.01  -0.01  -0.05     0.08  -0.05  -0.06
  24   1    -0.02  -0.17  -0.01     0.05   0.02  -0.01     0.12  -0.01  -0.03
  25   1    -0.00   0.10  -0.03     0.01  -0.01   0.02     0.03   0.07   0.01
  26   1     0.08   0.07   0.03     0.03  -0.02   0.02     0.12   0.04   0.07
  27   1     0.09   0.07  -0.01    -0.03  -0.02   0.00    -0.03   0.02  -0.03
  28   1     0.10   0.07  -0.00    -0.04  -0.02  -0.01    -0.03   0.03  -0.02
  29   1     0.02  -0.05   0.03    -0.00   0.04  -0.01    -0.08  -0.04  -0.01
  30   1     0.04  -0.03   0.03    -0.02   0.02  -0.01    -0.08  -0.05   0.00
  31   1     0.05  -0.07   0.02    -0.09   0.11  -0.00    -0.07  -0.04   0.02
  32   1     0.01  -0.05  -0.02     0.08   0.05   0.13    -0.07  -0.04   0.02
  33   1     0.04   0.00   0.01     0.05  -0.11  -0.04    -0.03   0.05  -0.01
  34   1     0.02  -0.01  -0.01     0.06  -0.11  -0.03    -0.09   0.02  -0.05
  35   1    -0.03  -0.02  -0.02     0.15  -0.09   0.01    -0.01   0.03   0.01
  36   1    -0.03  -0.01  -0.02     0.14  -0.09  -0.00    -0.01   0.03   0.01
  37   1    -0.06   0.02  -0.00     0.01   0.09   0.04     0.04  -0.03  -0.00
  38   1    -0.07   0.02  -0.01     0.01   0.09   0.05     0.04  -0.03  -0.00
  39   1    -0.04   0.03   0.00    -0.22   0.07  -0.02     0.06  -0.03   0.00
  40   1    -0.04   0.03   0.00    -0.22   0.07  -0.03     0.06  -0.03   0.00
  41   1    -0.04   0.03   0.00    -0.05  -0.14  -0.09     0.03   0.01   0.01
                     22                     23                     24
                        a                      a                      a 
 Frequencies --   492.3135               531.8645               775.4854
 Red. masses --    99.0000                99.0000                99.0000
 Frc consts  --    99.0000                99.0000                99.0000
 IR Inten    --    99.0000                99.0000                99.0000
 Raman Activ --     0.0000                 0.0000                 0.0000
 Depolar     --     0.0000                 0.0000                 0.0000
 Atom AN      X      Y      Z        X      Y      Z        X      Y      Z
   1   6     0.11  -0.05  -0.00     0.06  -0.02  -0.00     0.00  -0.00   0.01
   2   6     0.03   0.13   0.09     0.00   0.11   0.07    -0.02  -0.04   0.07
   3   6    -0.24  -0.02  -0.07    -0.19  -0.02  -0.06    -0.04  -0.06   0.07
   4   6    -0.20  -0.04  -0.09    -0.13  -0.00  -0.08    -0.03   0.01   0.06
   5   6     0.22   0.15   0.11     0.28   0.16   0.11     0.01   0.01  -0.01
   6   6     0.29   0.03  -0.01     0.28  -0.18   0.16     0.05  -0.05  -0.05
   7   6     0.15   0.02  -0.00    -0.24  -0.02  -0.13     0.05  -0.07  -0.08
   8   6     0.02  -0.02   0.06    -0.26  -0.02  -0.12     0.03  -0.02  -0.08
   9   6    -0.38   0.05  -0.09     0.20  -0.17   0.17     0.00  -0.02  -0.01
  10   6    -0.35  -0.15  -0.11     0.22   0.11   0.07    -0.03  -0.04   0.05
  11   6     0.07   0.03   0.08    -0.03   0.01  -0.05    -0.03  -0.04   0.10
  12   6     0.18   0.00   0.06    -0.09  -0.01  -0.04    -0.03  -0.05   0.08
  13   6     0.11  -0.10  -0.02    -0.05   0.05   0.01    -0.00  -0.01   0.01
  14   1    -0.04  -0.05  -0.04    -0.04  -0.03  -0.03     0.00   0.01  -0.02
  15   1     0.08  -0.04  -0.00     0.05  -0.03  -0.00     0.09   0.04  -0.00
  16   1     0.08  -0.04  -0.01     0.05  -0.02  -0.00    -0.06  -0.00  -0.06
  17   1     0.02   0.03   0.02     0.01   0.02   0.02     0.06   0.20   0.01
  18   1     0.02   0.03   0.02     0.01   0.03   0.02    -0.01  -0.09  -0.19
  19   1    -0.10   0.01  -0.01    -0.08   0.01  -0.01    -0.03  -0.10  -0.21
  20   1    -0.11   0.01  -0.02    -0.09   0.00  -0.02     0.07   0.22   0.00
  21   1    -0.10   0.01  -0.02    -0.09   0.02  -0.03    -0.07  -0.02  -0.11
  22   1    -0.09   0.01  -0.02    -0.07   0.03  -0.02     0.07   0.12   0.01
  23   1     0.09   0.02   0.01     0.04   0.02  -0.11     0.01  -0.00  -0.02
  24   1     0.09   0.04   0.03     0.19   0.14   0.03    -0.03   0.03  -0.00
  25   1     0.16  -0.05   0.00     0.18  -0.11   0.05    -0.04   0.18  -0.03
  26   1     0.05   0.01  -0.10     0.05  -0.03  -0.07    -0.00  -0.07   0.18
  27   1     0.06   0.01  -0.00    -0.13  -0.04  -0.03    -0.12   0.24  -0.03
  28   1     0.03   0.00  -0.00    -0.13  -0.04  -0.02     0.04  -0.08   0.26
  29   1     0.04   0.01   0.02    -0.12  -0.03  -0.03     0.07  -0.03   0.19
  30   1     0.01   0.02   0.02    -0.13  -0.04  -0.03    -0.11   0.18  -0.03
  31   1    -0.20   0.07  -0.04     0.13  -0.09   0.06     0.00   0.09  -0.01
  32   1    -0.10   0.00   0.08     0.05  -0.03  -0.03    -0.01  -0.03   0.08
  33   1    -0.17  -0.09  -0.03     0.16   0.12   0.02     0.01   0.17   0.00
  34   1    -0.10  -0.01   0.05     0.02   0.00  -0.10     0.02  -0.08  -0.15
  35   1     0.06  -0.01   0.02    -0.04   0.02  -0.02    -0.03  -0.12  -0.24
  36   1     0.05  -0.01   0.02    -0.03   0.02  -0.01     0.11   0.25   0.00
  37   1     0.07  -0.01   0.01    -0.03   0.00  -0.00    -0.05  -0.10  -0.21
  38   1     0.08  -0.00   0.02    -0.04  -0.00  -0.01     0.12   0.21  -0.00
  39   1     0.02  -0.02  -0.01    -0.01   0.01   0.00    -0.03   0.10  -0.01
  40   1     0.02  -0.02  -0.01    -0.01   0.01   0.01     0.06  -0.06  -0.07
  41   1     0.04  -0.05  -0.01    -0.02   0.03   0.01     0.01   0.02  -0.02
                     25                     26                     27
                        a                      a                      a 
 Frequencies --   768.7089               766.0104               788.9278
 Red. masses --    99.0000                99.0000                99.0000
 Frc consts  --    99.0000                99.0000                99.0000
 IR Inten    --    99.0000                99.0000                99.0000
 Raman Activ --     0.0000                 0.0000                 0.0000
 Depolar     --     0.0000                 0.0000                 0.0000
 Atom AN      X      Y      Z        X      Y      Z        X      Y      Z
   1   6     0.00   0.00  -0.00    -0.01  -0.00  -0.00     0.00   0.01  -0.03
   2   6     0.01   0.04  -0.05    -0.00  -0.02   0.02     0.03   0.07  -0.14
   3   6     0.01   0.04  -0.09     0.02  -0.02   0.06     0.04   0.05  -0.05
   4   6     0.02   0.07  -0.09    -0.00  -0.07   0.05    -0.01  -0.09   0.06
   5   6     0.05   0.05  -0.06    -0.05  -0.05   0.04    -0.09  -0.10   0.10
   6   6     0.04  -0.03  -0.03    -0.06   0.06   0.04    -0.08   0.06   0.07
   7   6     0.02  -0.05   0.03     0.00   0.09   0.09     0.00   0.08  -0.02
   8   6    -0.02   0.07   0.00    -0.00   0.08   0.09     0.07  -0.08  -0.05
   9   6    -0.06   0.05   0.04    -0.06   0.07   0.03     0.07  -0.07  -0.07
  10   6    -0.06  -0.06   0.06    -0.06  -0.05   0.03     0.02   0.01  -0.02
  11   6    -0.02  -0.08   0.08    -0.01  -0.07   0.05    -0.03   0.03   0.07
  12   6     0.00  -0.02   0.07     0.01  -0.01   0.05    -0.05  -0.06   0.06
  13   6     0.01  -0.01   0.00     0.01  -0.01   0.00    -0.01  -0.01   0.01
  14   1    -0.01  -0.01   0.01     0.01   0.01  -0.00    -0.00  -0.03   0.06
  15   1    -0.05  -0.03   0.00     0.02   0.02  -0.00    -0.17  -0.07   0.01
  16   1     0.05  -0.00   0.05    -0.03   0.00  -0.03     0.12  -0.00   0.12
  17   1    -0.04  -0.18  -0.00     0.02   0.10  -0.00    -0.12  -0.29  -0.02
  18   1     0.00   0.08   0.17    -0.00  -0.04  -0.09     0.05   0.12   0.28
  19   1     0.06   0.10   0.26    -0.04  -0.06  -0.16    -0.04   0.10   0.14
  20   1    -0.13  -0.26  -0.01     0.09   0.16   0.00     0.04  -0.17  -0.00
  21   1     0.04   0.12   0.28    -0.02  -0.09  -0.19     0.07  -0.12  -0.16
  22   1    -0.13  -0.27  -0.01     0.10   0.18   0.00     0.01   0.17   0.01
  23   1    -0.01   0.09   0.18     0.01  -0.07  -0.13    -0.01  -0.12  -0.23
  24   1    -0.04  -0.19  -0.01     0.03   0.13   0.01     0.07   0.23   0.02
  25   1    -0.04   0.04  -0.01     0.05  -0.18   0.02     0.08  -0.11   0.03
  26   1     0.00  -0.03   0.06     0.00   0.08  -0.19    -0.02   0.06  -0.14
  27   1     0.02   0.00   0.01     0.18  -0.26   0.04    -0.03  -0.03  -0.00
  28   1    -0.03  -0.03   0.01    -0.04   0.09  -0.30     0.08   0.07  -0.04
  29   1     0.01   0.06  -0.12    -0.04   0.09  -0.30    -0.01  -0.09   0.19
  30   1     0.04  -0.09   0.01     0.18  -0.25   0.04    -0.04   0.19  -0.03
  31   1     0.06  -0.11   0.03     0.05  -0.17   0.03    -0.06   0.19  -0.05
  32   1     0.00   0.05  -0.13     0.01   0.07  -0.19     0.00  -0.07   0.20
  33   1     0.05   0.19   0.00     0.02   0.12   0.00    -0.05   0.00  -0.01
  34   1     0.02  -0.11  -0.18     0.02  -0.08  -0.12     0.01   0.01   0.01
  35   1    -0.01  -0.14  -0.25    -0.00  -0.10  -0.17    -0.06  -0.02  -0.10
  36   1     0.11   0.25  -0.01     0.08   0.16  -0.01     0.06   0.11   0.01
  37   1    -0.05  -0.07  -0.18    -0.03  -0.05  -0.12    -0.03  -0.08  -0.16
  38   1     0.11   0.18   0.00     0.08   0.12   0.00     0.07   0.16  -0.00
  39   1    -0.03   0.08  -0.01    -0.02   0.05  -0.01    -0.02   0.09  -0.01
  40   1     0.03  -0.04  -0.05     0.02  -0.02  -0.04     0.06  -0.06  -0.06
  41   1     0.01  -0.01  -0.02     0.01  -0.01  -0.02    -0.00   0.04  -0.02
                     28                     29                     30
                        a                      a                      a 
 Frequencies --   804.2697               827.0628               865.3046
 Red. masses --    99.0000                99.0000                99.0000
 Frc consts  --    99.0000                99.0000                99.0000
 IR Inten    --    99.0000                99.0000                99.0000
 Raman Activ --     0.0000                 0.0000                 0.0000
 Depolar     --     0.0000                 0.0000                 0.0000
 Atom AN      X      Y      Z        X      Y      Z        X      Y      Z
   1   6     0.02   0.02  -0.02    -0.01  -0.01   0.01    -0.01  -0.06   0.08
   2   6     0.03   0.06  -0.11    -0.00  -0.02   0.03    -0.02  -0.09   0.10
   3   6    -0.02  -0.00  -0.01     0.03   0.02  -0.00     0.06   0.14  -0.16
   4   6    -0.05  -0.01   0.14     0.02  -0.03  -0.06     0.00   0.01  -0.06
   5   6    -0.04  -0.06   0.05    -0.04  -0.00   0.01    -0.14  -0.15   0.17
   6   6     0.07  -0.07  -0.10    -0.07   0.08   0.08    -0.04  -0.00   0.05
   7   6     0.08  -0.05  -0.10     0.03   0.02   0.05     0.06   0.05  -0.14
   8   6     0.00   0.07   0.03     0.07   0.01  -0.14     0.05  -0.02   0.02
   9   6    -0.11   0.09   0.10     0.02  -0.05  -0.03    -0.07   0.08   0.06
  10   6    -0.09  -0.05   0.07    -0.12  -0.13   0.16    -0.03   0.02  -0.00
  11   6     0.01  -0.07  -0.04    -0.04  -0.02   0.10     0.01  -0.04  -0.06
  12   6     0.06   0.07  -0.07     0.05   0.09  -0.16     0.02   0.01   0.03
  13   6     0.03   0.00  -0.02     0.02   0.02  -0.07     0.02  -0.01   0.02
  14   1    -0.01  -0.03   0.05     0.01   0.01  -0.01     0.04   0.07  -0.09
  15   1    -0.13  -0.06   0.00     0.04   0.02  -0.00     0.26   0.10   0.00
  16   1     0.12  -0.01   0.10    -0.04   0.00  -0.03    -0.24   0.01  -0.16
  17   1    -0.10  -0.19  -0.01     0.03   0.04   0.00     0.21   0.10   0.01
  18   1     0.06   0.08   0.19    -0.03  -0.02  -0.04    -0.19  -0.02  -0.15
  19   1    -0.09   0.04   0.01     0.04   0.00   0.02     0.14   0.09   0.23
  20   1     0.08  -0.04  -0.00    -0.03  -0.01   0.00    -0.17  -0.20  -0.02
  21   1    -0.03  -0.09  -0.19     0.05  -0.00   0.04     0.22  -0.06   0.05
  22   1     0.03   0.24   0.03    -0.01  -0.06  -0.01    -0.19   0.00  -0.01
  23   1     0.00  -0.07  -0.14    -0.01  -0.01  -0.00    -0.08  -0.12  -0.26
  24   1    -0.03   0.17   0.01     0.03  -0.01   0.00     0.10   0.24   0.04
  25   1    -0.04   0.23  -0.04     0.04  -0.15   0.03     0.12   0.02   0.01
  26   1     0.02  -0.08   0.22    -0.03   0.06  -0.16    -0.02   0.01  -0.03
  27   1    -0.01   0.23  -0.04    -0.04  -0.09   0.02    -0.04   0.13  -0.04
  28   1    -0.01  -0.09   0.20     0.09   0.06  -0.05     0.10   0.02   0.08
  29   1     0.10   0.10  -0.11     0.04  -0.03   0.14     0.09   0.03   0.01
  30   1    -0.02  -0.12   0.02    -0.01   0.20  -0.05    -0.07  -0.03   0.01
  31   1     0.09  -0.20   0.06     0.05   0.14  -0.02     0.04  -0.11   0.03
  32   1    -0.02   0.08  -0.23    -0.00  -0.04   0.10    -0.04   0.03  -0.12
  33   1     0.07   0.10   0.01     0.04   0.31   0.02     0.03  -0.03   0.00
  34   1    -0.01  -0.07  -0.11    -0.02  -0.17  -0.28     0.00   0.01   0.02
  35   1     0.10  -0.05   0.01     0.13  -0.13  -0.12     0.01  -0.00   0.02
  36   1    -0.05  -0.02  -0.01    -0.10   0.20   0.00     0.01  -0.05  -0.01
  37   1     0.01   0.10   0.16    -0.03   0.17   0.24     0.02  -0.01  -0.02
  38   1    -0.05  -0.17   0.00    -0.02  -0.30  -0.01    -0.01   0.04   0.00
  39   1     0.03  -0.11   0.01     0.12  -0.24   0.02    -0.03   0.04  -0.00
  40   1    -0.09   0.07   0.07    -0.15   0.14   0.15     0.01  -0.02  -0.02
  41   1     0.00  -0.05   0.03    -0.03  -0.05   0.09     0.02  -0.03  -0.03
                     31                     32                     33
                        a                      a                      a 
 Frequencies --  1505.3231              1505.0411               894.8204
 Red. masses --    99.0000                99.0000                99.0000
 Frc consts  --    99.0000                99.0000                99.0000
 IR Inten    --    99.0000                99.0000                99.0000
 Raman Activ --     0.0000                 0.0000                 0.0000
 Depolar     --     0.0000                 0.0000                 0.0000
 Atom AN      X      Y      Z        X      Y      Z        X      Y      Z
   1   6    -0.00  -0.00   0.01    -0.04  -0.11   0.18    -0.02   0.02  -0.05
   2   6    -0.00  -0.01  -0.00    -0.01  -0.03   0.04     0.01   0.02  -0.01
   3   6     0.00   0.00   0.00     0.00   0.00  -0.00     0.04  -0.03   0.09
   4   6    -0.00  -0.01  -0.01    -0.00  -0.00  -0.01     0.05  -0.12  -0.10
   5   6    -0.00   0.00   0.00    -0.00   0.00   0.00     0.04   0.11   0.01
   6   6     0.00  -0.01   0.00    -0.00  -0.00  -0.00    -0.16   0.20   0.10
   7   6    -0.00   0.01  -0.01    -0.00   0.00  -0.00     0.02  -0.13  -0.03
   8   6     0.01  -0.01   0.01     0.00   0.00  -0.00     0.02  -0.10  -0.12
   9   6    -0.00   0.00  -0.00    -0.00   0.00  -0.00    -0.17   0.16   0.11
  10   6     0.00  -0.00   0.00     0.00   0.00  -0.00    -0.03   0.08   0.09
  11   6     0.01   0.01   0.01     0.00  -0.00  -0.00     0.00  -0.13  -0.19
  12   6     0.01   0.02  -0.04    -0.00  -0.00   0.00     0.07   0.04   0.08
  13   6     0.05   0.10  -0.18    -0.00  -0.00   0.01     0.06  -0.03   0.07
  14   1     0.00   0.01  -0.02     0.14   0.37  -0.60    -0.01  -0.02   0.04
  15   1    -0.01   0.01   0.00    -0.34   0.33   0.02    -0.11  -0.03  -0.00
  16   1     0.01  -0.01  -0.00     0.37  -0.24  -0.14     0.07  -0.00   0.06
  17   1     0.01   0.01  -0.00     0.02   0.02   0.01    -0.09   0.01  -0.00
  18   1     0.00   0.00   0.01    -0.02  -0.00  -0.00     0.07  -0.01   0.03
  19   1    -0.00  -0.00  -0.01    -0.02   0.01  -0.00    -0.01  -0.04  -0.08
  20   1    -0.00  -0.01   0.00     0.02  -0.01   0.00     0.04   0.09   0.02
  21   1     0.00   0.01   0.02     0.01   0.00   0.01    -0.01  -0.01   0.01
  22   1     0.01   0.02  -0.00    -0.00   0.01  -0.00     0.09  -0.10  -0.03
  23   1     0.00  -0.00  -0.00     0.00  -0.00  -0.00     0.05   0.04   0.08
  24   1    -0.00  -0.00  -0.00    -0.00  -0.00  -0.00     0.08  -0.08   0.00
  25   1    -0.01   0.02  -0.00     0.00  -0.00  -0.00     0.09  -0.18   0.04
  26   1    -0.00   0.00  -0.02     0.00   0.00   0.00    -0.13   0.07  -0.24
  27   1     0.01  -0.02   0.00     0.00  -0.01   0.00    -0.21  -0.01  -0.01
  28   1     0.00  -0.00   0.02     0.00  -0.00   0.01     0.20   0.03   0.10
  29   1    -0.01   0.01  -0.05    -0.00  -0.00   0.00     0.19   0.02   0.14
  30   1    -0.02   0.04  -0.00    -0.00  -0.00  -0.00    -0.20   0.08  -0.03
  31   1     0.00  -0.01   0.00     0.00  -0.00   0.00     0.16  -0.13   0.06
  32   1    -0.00  -0.00   0.01     0.00  -0.00   0.00    -0.14   0.04  -0.23
  33   1    -0.00   0.00   0.00     0.00  -0.00  -0.00     0.14   0.01   0.03
  34   1     0.00  -0.00  -0.00    -0.00   0.00  -0.00    -0.01   0.01  -0.02
  35   1    -0.02  -0.01  -0.04     0.00  -0.00   0.00     0.05  -0.01   0.06
  36   1     0.00  -0.04   0.00    -0.00   0.00  -0.00    -0.04  -0.14  -0.04
  37   1    -0.01   0.02   0.02     0.00  -0.00  -0.00     0.06  -0.03  -0.02
  38   1     0.02  -0.01  -0.01    -0.00   0.00   0.00    -0.09   0.10   0.01
  39   1    -0.46   0.02  -0.04     0.01  -0.00   0.00    -0.12   0.13  -0.01
  40   1     0.43  -0.08   0.18    -0.01   0.00  -0.01     0.01  -0.05  -0.07
  41   1    -0.17  -0.33   0.60     0.01   0.01  -0.02     0.07  -0.10  -0.09
                     34                     35                     36
                        a                      a                      a 
 Frequencies --  1508.0931               931.2768              1508.1458
 Red. masses --    99.0000                99.0000                99.0000
 Frc consts  --    99.0000                99.0000                99.0000
 IR Inten    --    99.0000                99.0000                99.0000
 Raman Activ --     0.0000                 0.0000                 0.0000
 Depolar     --     0.0000                 0.0000                 0.0000
 Atom AN      X      Y      Z        X      Y      Z        X      Y      Z
   1   6     0.04  -0.17  -0.10    -0.06   0.03   0.00    -0.01   0.02   0.01
   2   6     0.01  -0.10  -0.06     0.01   0.05   0.03    -0.00   0.01   0.01
   3   6    -0.04  -0.03  -0.03     0.04  -0.06  -0.03     0.01   0.00   0.00
   4   6     0.01  -0.00   0.00     0.05  -0.06  -0.02    -0.00  -0.00  -0.00
   5   6    -0.00  -0.01  -0.01     0.07   0.06   0.06     0.00   0.00   0.00
   6   6     0.00   0.00  -0.00    -0.07   0.07  -0.03     0.00  -0.01   0.01
   7   6     0.00  -0.00   0.00    -0.09  -0.07  -0.05    -0.00   0.00  -0.00
   8   6     0.00  -0.00   0.00    -0.06  -0.20   0.14     0.01  -0.02   0.02
   9   6     0.00  -0.00   0.00    -0.06   0.16  -0.11     0.00   0.00  -0.00
  10   6     0.00  -0.00   0.00     0.20   0.24  -0.08     0.01  -0.00   0.00
  11   6    -0.00   0.00   0.00    -0.05  -0.22   0.11    -0.01   0.05   0.02
  12   6     0.01   0.01   0.01     0.03   0.01   0.02     0.07   0.07   0.06
  13   6     0.02   0.01   0.01     0.08   0.09  -0.10     0.15   0.10   0.10
  14   1    -0.25  -0.14  -0.13    -0.08  -0.03  -0.04     0.03   0.02   0.02
  15   1     0.11   0.59  -0.03     0.02  -0.02  -0.00    -0.01  -0.07   0.00
  16   1    -0.04   0.24   0.56     0.03  -0.01  -0.01     0.00  -0.03  -0.07
  17   1     0.03   0.15  -0.01     0.02   0.01   0.01    -0.00  -0.01   0.00
  18   1    -0.01   0.05   0.14     0.02   0.01   0.01     0.00  -0.00  -0.01
  19   1     0.03   0.04   0.13     0.01  -0.02  -0.01    -0.00  -0.01  -0.02
  20   1     0.06   0.13  -0.01     0.01  -0.02  -0.01    -0.01  -0.02   0.00
  21   1    -0.01  -0.01  -0.02     0.01  -0.01  -0.01     0.00   0.00   0.01
  22   1    -0.01  -0.02   0.00     0.01  -0.01  -0.01     0.01   0.01  -0.00
  23   1     0.00   0.01   0.03     0.04   0.01   0.01     0.00  -0.00  -0.01
  24   1     0.01   0.03   0.00     0.04   0.01   0.01    -0.00  -0.01   0.00
  25   1    -0.00  -0.00   0.00     0.03   0.01  -0.01    -0.01   0.02  -0.00
  26   1    -0.00  -0.00   0.00    -0.06   0.01  -0.04    -0.00   0.00  -0.02
  27   1    -0.01   0.01  -0.00    -0.04   0.04  -0.02     0.01  -0.01   0.00
  28   1    -0.00   0.00  -0.02     0.01  -0.02   0.05     0.00  -0.00   0.02
  29   1     0.00   0.00  -0.00    -0.02  -0.05   0.03    -0.01   0.01  -0.07
  30   1    -0.00   0.00  -0.00    -0.07  -0.09   0.04    -0.04   0.07  -0.00
  31   1    -0.00   0.00  -0.00    -0.10  -0.04  -0.02    -0.00  -0.01   0.00
  32   1    -0.00   0.00  -0.00    -0.07   0.01  -0.06    -0.00  -0.00   0.01
  33   1    -0.00   0.00  -0.00    -0.10  -0.13  -0.02    -0.00   0.01  -0.00
  34   1    -0.00   0.00   0.00     0.21   0.08   0.22    -0.01   0.01   0.01
  35   1    -0.00  -0.01  -0.01    -0.19  -0.08  -0.19    -0.01  -0.05  -0.12
  36   1    -0.00  -0.01   0.00     0.19   0.11   0.01    -0.04  -0.13   0.01
  37   1    -0.01  -0.01  -0.02    -0.26   0.11  -0.01    -0.04  -0.04  -0.15
  38   1    -0.01  -0.02   0.00     0.21  -0.08   0.02    -0.09  -0.13   0.02
  39   1    -0.04  -0.06   0.01     0.07  -0.23   0.01    -0.34  -0.49   0.04
  40   1    -0.02  -0.02  -0.07    -0.23   0.20   0.14    -0.18  -0.18  -0.55
  41   1    -0.01   0.04   0.01     0.02  -0.15   0.06    -0.08   0.28   0.12
                     37                     38                     39
                        a                      a                      a 
 Frequencies --   958.1713               995.0136              1176.4310
 Red. masses --    99.0000                99.0000                99.0000
 Frc consts  --    99.0000                99.0000                99.0000
 IR Inten    --    99.0000                99.0000                99.0000
 Raman Activ --     0.0000                 0.0000                 0.0000
 Depolar     --     0.0000                 0.0000                 0.0000
 Atom AN      X      Y      Z        X      Y      Z        X      Y      Z
   1   6    -0.07   0.15  -0.08    -0.02  -0.01   0.07    -0.01   0.02   0.09
   2   6    -0.00   0.02   0.09     0.01   0.02  -0.06     0.01  -0.04  -0.15
   3   6     0.00  -0.17   0.03    -0.02  -0.01  -0.01     0.02   0.02   0.19
   4   6     0.06   0.18  -0.12    -0.03   0.03   0.08     0.04  -0.03  -0.24
   5   6    -0.20  -0.17   0.05    -0.09  -0.02  -0.15     0.01  -0.00   0.30
   6   6     0.03  -0.15   0.14     0.04  -0.06   0.17    -0.01  -0.01  -0.31
   7   6     0.06   0.20  -0.16     0.12   0.07  -0.06    -0.03  -0.03   0.27
   8   6     0.10   0.05   0.04     0.09   0.20  -0.15    -0.01   0.01  -0.23
   9   6     0.05  -0.04   0.05     0.12  -0.14   0.28     0.00  -0.03   0.21
  10   6    -0.07  -0.02  -0.05    -0.16  -0.11  -0.20     0.01   0.04  -0.18
  11   6    -0.07   0.01  -0.01    -0.14   0.11   0.02    -0.03  -0.02   0.13
  12   6     0.01   0.04   0.03    -0.04   0.04   0.11     0.01   0.01  -0.10
  13   6     0.06  -0.02  -0.00     0.12  -0.04  -0.09    -0.00  -0.01   0.06
  14   1    -0.20  -0.11   0.00    -0.03   0.01  -0.05    -0.05  -0.00  -0.05
  15   1    -0.15  -0.11  -0.01     0.12   0.02   0.01     0.11   0.00   0.01
  16   1     0.28  -0.04   0.12    -0.06  -0.01  -0.06    -0.01  -0.02  -0.04
  17   1    -0.15   0.13   0.02     0.11  -0.10  -0.01     0.01  -0.10  -0.03
  18   1     0.27  -0.13  -0.04    -0.08   0.06   0.04    -0.01   0.02   0.04
  19   1     0.21  -0.18  -0.11    -0.13   0.04  -0.00    -0.11   0.01  -0.06
  20   1    -0.11   0.14   0.00     0.15  -0.06  -0.01     0.07   0.09   0.04
  21   1     0.09   0.09   0.17    -0.11   0.03  -0.03    -0.08   0.08   0.08
  22   1    -0.10  -0.14  -0.02     0.14   0.01   0.01    -0.01  -0.15  -0.05
  23   1    -0.25  -0.01  -0.15    -0.07   0.04   0.05    -0.18   0.03  -0.10
  24   1     0.12   0.05   0.01    -0.03  -0.11  -0.04     0.10   0.16   0.07
  25   1     0.11   0.00   0.03    -0.02  -0.13   0.05    -0.09   0.15  -0.09
  26   1     0.04  -0.02   0.02     0.04   0.02  -0.04     0.17   0.05   0.09
  27   1     0.04   0.09  -0.04    -0.13  -0.02  -0.01     0.04  -0.15   0.07
  28   1     0.04   0.06  -0.02     0.11   0.05   0.01     0.05   0.07  -0.09
  29   1     0.01   0.01  -0.02     0.11   0.09  -0.02     0.08   0.01   0.07
  30   1     0.01  -0.03   0.01    -0.12   0.01  -0.03    -0.07   0.11  -0.06
  31   1    -0.02  -0.03   0.01     0.05  -0.12   0.08     0.01  -0.12   0.07
  32   1     0.03  -0.01   0.02     0.11   0.02  -0.01    -0.03  -0.00  -0.05
  33   1    -0.04  -0.02  -0.01     0.04  -0.16  -0.04    -0.10  -0.08  -0.04
  34   1    -0.03   0.00   0.00    -0.21   0.07   0.00     0.08   0.02   0.08
  35   1    -0.03   0.00  -0.01    -0.21   0.10  -0.00     0.05  -0.07  -0.05
  36   1    -0.01   0.01  -0.00     0.16  -0.05   0.02    -0.01   0.10   0.02
  37   1    -0.02   0.02   0.00    -0.17   0.04  -0.06     0.03   0.02   0.04
  38   1     0.00   0.01   0.01     0.17   0.03   0.03    -0.05  -0.05  -0.02
  39   1    -0.02  -0.01  -0.00     0.07  -0.14  -0.00    -0.04   0.06   0.00
  40   1    -0.03   0.01  -0.00    -0.09   0.07   0.06     0.02  -0.03  -0.03
  41   1     0.03  -0.07  -0.02     0.02  -0.09   0.03     0.02  -0.01  -0.03
                     40                     41                     42
                        a                      a                      a 
 Frequencies --   990.4393              1224.1000               940.3492
 Red. masses --    99.0000                99.0000                99.0000
 Frc consts  --    99.0000                99.0000                99.0000
 IR Inten    --    99.0000                99.0000                99.0000
 Raman Activ --     0.0000                 0.0000                 0.0000
 Depolar     --     0.0000                 0.0000                 0.0000
 Atom AN      X      Y      Z        X      Y      Z        X      Y      Z
   1   6     0.05   0.03   0.05    -0.00  -0.02  -0.00     0.29  -0.17  -0.10
   2   6    -0.04  -0.03  -0.04     0.00   0.02  -0.00    -0.01  -0.23  -0.14
   3   6    -0.13  -0.02  -0.04    -0.03  -0.02  -0.01    -0.10   0.30   0.23
   4   6    -0.06   0.28   0.17     0.01   0.04   0.00    -0.15   0.03  -0.11
   5   6    -0.06  -0.23  -0.20    -0.02  -0.03   0.01    -0.07  -0.06  -0.02
   6   6     0.21  -0.09   0.08     0.01   0.02  -0.04     0.07  -0.03   0.09
   7   6    -0.00   0.16   0.05     0.04   0.05   0.09     0.02   0.04  -0.08
   8   6     0.02  -0.16  -0.08     0.06   0.00  -0.12     0.01  -0.01   0.03
   9   6    -0.23   0.11  -0.01     0.03   0.04   0.11    -0.01   0.01   0.02
  10   6     0.06   0.15   0.10    -0.02  -0.06   0.01     0.02   0.01  -0.06
  11   6     0.21  -0.15  -0.02     0.07   0.14  -0.16     0.02  -0.00   0.06
  12   6     0.01  -0.10  -0.04    -0.12  -0.19   0.30    -0.02  -0.02  -0.01
  13   6    -0.16   0.07  -0.02     0.09   0.15  -0.24    -0.03   0.02  -0.04
  14   1    -0.04  -0.02  -0.03     0.01   0.01   0.00     0.46   0.13   0.24
  15   1     0.08  -0.01   0.01    -0.00   0.01  -0.00    -0.27   0.08  -0.00
  16   1     0.04  -0.01  -0.01    -0.01   0.00  -0.00    -0.11   0.08   0.08
  17   1     0.04  -0.04  -0.01     0.01  -0.01   0.00    -0.20   0.03  -0.03
  18   1     0.01  -0.01  -0.00     0.01   0.01   0.01    -0.04  -0.05  -0.04
  19   1    -0.02  -0.01  -0.01     0.02  -0.02  -0.01    -0.03   0.05  -0.00
  20   1     0.03  -0.03  -0.01     0.01  -0.00  -0.00    -0.10   0.18   0.06
  21   1    -0.05   0.08   0.04     0.01   0.01   0.01    -0.01   0.03   0.05
  22   1    -0.00   0.08   0.04     0.03  -0.02   0.00    -0.03  -0.08  -0.02
  23   1    -0.08  -0.02  -0.02     0.04  -0.04  -0.02    -0.06  -0.01  -0.04
  24   1    -0.10  -0.06  -0.05     0.04  -0.00   0.00     0.08  -0.03  -0.00
  25   1    -0.11  -0.08   0.02     0.03   0.04  -0.01     0.09  -0.01   0.02
  26   1     0.30   0.10   0.05    -0.10  -0.06   0.01     0.01  -0.00  -0.01
  27   1    -0.05  -0.13   0.02     0.02  -0.05   0.03    -0.02   0.05  -0.02
  28   1     0.10   0.12  -0.11    -0.14  -0.05  -0.03     0.02   0.00   0.03
  29   1     0.03  -0.06   0.13    -0.07  -0.06   0.05     0.02   0.01  -0.01
  30   1    -0.07   0.10  -0.03    -0.10   0.02  -0.03    -0.04  -0.04   0.01
  31   1     0.08  -0.02   0.01    -0.08  -0.12   0.04    -0.04  -0.05   0.01
  32   1    -0.23  -0.05  -0.12    -0.10  -0.04  -0.03     0.01   0.01  -0.02
  33   1     0.10   0.00   0.03    -0.21   0.11  -0.02    -0.03  -0.05  -0.01
  34   1     0.05   0.03   0.03     0.25  -0.14  -0.01     0.02   0.02   0.05
  35   1     0.08  -0.05  -0.01     0.19   0.03   0.12    -0.03  -0.00  -0.03
  36   1     0.12  -0.06  -0.00    -0.18  -0.06  -0.03     0.07   0.03   0.01
  37   1     0.01  -0.04  -0.02     0.11  -0.21  -0.16    -0.05   0.01  -0.01
  38   1     0.06  -0.04  -0.01    -0.09   0.26   0.04     0.07  -0.03   0.00
  39   1     0.06  -0.02   0.01     0.11  -0.25  -0.02     0.05  -0.07   0.00
  40   1     0.03   0.01   0.03    -0.17   0.20   0.14    -0.02   0.03   0.04
  41   1    -0.09   0.15   0.07    -0.02  -0.07   0.10    -0.03   0.04   0.04
                     43                     44                     45
                        a                      a                      a 
 Frequencies --   942.4833              1018.8753              1215.9336
 Red. masses --    99.0000                99.0000                99.0000
 Frc consts  --    99.0000                99.0000                99.0000
 IR Inten    --    99.0000                99.0000                99.0000
 Raman Activ --     0.0000                 0.0000                 0.0000
 Depolar     --     0.0000                 0.0000                 0.0000
 Atom AN      X      Y      Z        X      Y      Z        X      Y      Z
   1   6    -0.07   0.04  -0.01     0.02   0.03  -0.07     0.06   0.16  -0.23
   2   6     0.01   0.05   0.04    -0.02  -0.04   0.08    -0.08  -0.23   0.32
   3   6     0.06  -0.07  -0.00     0.01   0.03  -0.05     0.08   0.16  -0.22
   4   6     0.06  -0.09  -0.07     0.01  -0.02   0.00    -0.04  -0.12   0.12
   5   6     0.01   0.07   0.07     0.09   0.02   0.07     0.01   0.03   0.02
   6   6    -0.12   0.09   0.03     0.01   0.11  -0.19    -0.03  -0.02  -0.10
   7   6     0.02  -0.09  -0.06     0.05  -0.16   0.23    -0.03  -0.00   0.11
   8   6    -0.01   0.03   0.02    -0.08   0.12  -0.20    -0.03  -0.03  -0.08
   9   6    -0.03   0.05   0.05    -0.04  -0.08   0.11    -0.00  -0.02   0.03
  10   6     0.04  -0.13  -0.10    -0.06  -0.01   0.00     0.01   0.03   0.00
  11   6     0.25   0.19   0.19     0.02   0.00  -0.05    -0.01  -0.03  -0.02
  12   6    -0.13  -0.16  -0.12    -0.02  -0.03   0.07     0.01   0.00   0.03
  13   6    -0.31   0.04  -0.08     0.01   0.03  -0.06    -0.01  -0.00  -0.02
  14   1    -0.09  -0.03  -0.03     0.02  -0.02   0.05    -0.04  -0.07   0.10
  15   1    -0.01  -0.03  -0.00    -0.13  -0.03  -0.01    -0.25  -0.10  -0.03
  16   1     0.05  -0.02   0.01     0.09   0.00   0.07     0.24   0.02   0.15
  17   1    -0.01   0.02   0.01    -0.12   0.13   0.02     0.17   0.17   0.06
  18   1     0.05  -0.01   0.01     0.10  -0.09  -0.06    -0.16  -0.10  -0.18
  19   1     0.03  -0.03  -0.02     0.20  -0.05   0.04    -0.08   0.16   0.14
  20   1     0.00   0.01  -0.00    -0.23   0.04  -0.00     0.04  -0.19  -0.04
  21   1     0.03  -0.02   0.00     0.20  -0.09  -0.01    -0.21   0.01  -0.08
  22   1     0.02  -0.05  -0.02    -0.23   0.10   0.01     0.18   0.03   0.02
  23   1     0.01   0.01   0.00     0.23  -0.10  -0.01    -0.19   0.10   0.01
  24   1     0.06   0.01   0.02    -0.18   0.14   0.02     0.16  -0.07   0.01
  25   1     0.07  -0.04   0.01    -0.15   0.03  -0.05     0.05   0.09  -0.03
  26   1    -0.11   0.00  -0.09     0.02   0.02   0.03     0.08   0.03   0.02
  27   1    -0.09   0.06  -0.02     0.03  -0.11   0.06     0.07  -0.03   0.03
  28   1     0.08  -0.02   0.09    -0.01  -0.03  -0.01     0.05   0.05  -0.04
  29   1     0.13   0.08  -0.04    -0.04   0.01   0.01     0.11   0.04   0.03
  30   1    -0.09  -0.08   0.01     0.04   0.13  -0.06    -0.03   0.04  -0.02
  31   1    -0.05  -0.11   0.02     0.17   0.04   0.03    -0.04  -0.03   0.01
  32   1     0.09   0.08  -0.07    -0.05  -0.03  -0.02     0.07   0.04  -0.01
  33   1    -0.02  -0.05  -0.02     0.19  -0.08   0.02    -0.04   0.01  -0.00
  34   1    -0.00  -0.01   0.01    -0.20   0.07  -0.03    -0.02   0.02   0.01
  35   1     0.10   0.03   0.04    -0.14   0.08   0.02     0.01  -0.01  -0.00
  36   1     0.15   0.03   0.05     0.17  -0.11   0.00    -0.03   0.00  -0.01
  37   1     0.06  -0.08  -0.03    -0.12   0.01  -0.06     0.00  -0.00  -0.01
  38   1     0.11  -0.10  -0.02     0.15   0.01   0.02     0.00   0.01   0.01
  39   1     0.21  -0.08   0.01     0.06  -0.10  -0.00     0.01  -0.01  -0.00
  40   1     0.17  -0.05   0.05    -0.05   0.06   0.05     0.00   0.00   0.01
  41   1    -0.22   0.43   0.18    -0.02  -0.00   0.04    -0.01   0.01   0.01
                     46                     47                     48
                        a                      a                      a 
 Frequencies --  1496.6582              1493.0556              1498.7344
 Red. masses --    99.0000                99.0000                99.0000
 Frc consts  --    99.0000                99.0000                99.0000
 IR Inten    --    99.0000                99.0000                99.0000
 Raman Activ --     0.0000                 0.0000                 0.0000
 Depolar     --     0.0000                 0.0000                 0.0000
 Atom AN      X      Y      Z        X      Y      Z        X      Y      Z
   1   6     0.00   0.01   0.01    -0.00  -0.01  -0.01    -0.01  -0.04  -0.03
   2   6    -0.02  -0.02  -0.02     0.01   0.05   0.03     0.08   0.15   0.11
   3   6    -0.04  -0.06  -0.05     0.01  -0.02  -0.01     0.05   0.07   0.05
   4   6     0.04   0.01   0.02    -0.04  -0.11  -0.08    -0.00   0.01   0.01
   5   6     0.03   0.10   0.07    -0.01   0.04   0.02     0.01   0.03   0.02
   6   6    -0.06   0.13  -0.12     0.01   0.01   0.00    -0.02   0.01  -0.01
   7   6    -0.02  -0.01  -0.00     0.03  -0.07   0.06    -0.04   0.08  -0.07
   8   6    -0.01  -0.00  -0.00     0.03  -0.06   0.05    -0.01   0.03  -0.03
   9   6    -0.02   0.05  -0.05     0.04  -0.05   0.07    -0.03   0.06  -0.06
  10   6     0.03   0.07   0.05     0.02   0.11   0.08     0.00   0.02   0.01
  11   6     0.04   0.07   0.05    -0.00  -0.06  -0.04     0.00  -0.02  -0.01
  12   6    -0.02  -0.02  -0.01    -0.01  -0.06  -0.04    -0.01  -0.03  -0.02
  13   6    -0.00  -0.00   0.00     0.01   0.02   0.01     0.01   0.01   0.01
  14   1     0.02   0.01   0.01    -0.01  -0.00  -0.00    -0.05  -0.03  -0.03
  15   1    -0.01  -0.05   0.00     0.02   0.04  -0.00     0.06   0.17  -0.01
  16   1     0.00  -0.02  -0.05     0.01   0.01   0.04     0.01   0.06   0.17
  17   1     0.04   0.06  -0.00    -0.05  -0.13   0.01    -0.19  -0.45   0.03
  18   1     0.02   0.02   0.07    -0.02  -0.04  -0.13    -0.08  -0.15  -0.46
  19   1     0.04   0.06   0.20    -0.01   0.01   0.03    -0.04  -0.05  -0.18
  20   1     0.09   0.19  -0.01    -0.00   0.03  -0.00    -0.09  -0.18   0.01
  21   1    -0.03  -0.02  -0.08     0.06   0.10   0.32    -0.01  -0.00  -0.01
  22   1    -0.06  -0.07   0.00     0.12   0.32  -0.02    -0.01  -0.02   0.00
  23   1    -0.04  -0.07  -0.28    -0.00  -0.04  -0.11    -0.00  -0.03  -0.09
  24   1    -0.12  -0.27   0.00    -0.04  -0.11  -0.00    -0.03  -0.09   0.00
  25   1     0.20  -0.38   0.03     0.00  -0.01   0.00     0.02  -0.03   0.00
  26   1     0.05  -0.08   0.42     0.00   0.00   0.01     0.01  -0.00   0.04
  27   1     0.02   0.02  -0.00    -0.10   0.20  -0.01     0.13  -0.24   0.01
  28   1     0.01   0.01  -0.01    -0.04   0.04  -0.22     0.05  -0.05   0.26
  29   1     0.01   0.00   0.00    -0.03   0.02  -0.15     0.01  -0.01   0.07
  30   1     0.01   0.00  -0.00    -0.06   0.15  -0.01     0.03  -0.06   0.00
  31   1     0.08  -0.15   0.02    -0.11   0.18  -0.02     0.11  -0.19   0.03
  32   1     0.01  -0.02   0.16    -0.01   0.04  -0.21     0.02  -0.03   0.21
  33   1    -0.08  -0.17   0.01    -0.13  -0.32   0.02    -0.02  -0.05   0.00
  34   1    -0.01  -0.06  -0.18    -0.00  -0.12  -0.32    -0.00  -0.02  -0.05
  35   1    -0.03  -0.08  -0.21     0.01   0.07   0.16     0.00   0.02   0.04
  36   1    -0.10  -0.21   0.02     0.06   0.16  -0.02     0.01   0.05  -0.01
  37   1     0.02   0.03   0.07     0.00   0.07   0.15     0.01   0.03   0.08
  38   1     0.04   0.07  -0.01     0.05   0.16  -0.02     0.03   0.08  -0.01
  39   1     0.01   0.00   0.00    -0.03  -0.06   0.01    -0.02  -0.03   0.00
  40   1     0.00  -0.00   0.00    -0.01  -0.02  -0.06    -0.01  -0.01  -0.03
  41   1     0.00  -0.01  -0.01    -0.01   0.02   0.01    -0.01   0.01   0.01
                     49                     50                     51
                        a                      a                      a 
 Frequencies --  1500.8189              1490.5062              1496.7184
 Red. masses --    99.0000                99.0000                99.0000
 Frc consts  --    99.0000                99.0000                99.0000
 IR Inten    --    99.0000                99.0000                99.0000
 Raman Activ --     0.0000                 0.0000                 0.0000
 Depolar     --     0.0000                 0.0000                 0.0000
 Atom AN      X      Y      Z        X      Y      Z        X      Y      Z
   1   6     0.01  -0.00  -0.00    -0.00  -0.00  -0.00    -0.01  -0.01  -0.01
   2   6    -0.00  -0.04  -0.03     0.01   0.01   0.01     0.02   0.06   0.04
   3   6     0.02   0.07   0.05     0.02   0.02   0.02    -0.00  -0.03  -0.02
   4   6     0.01   0.01   0.01    -0.04  -0.06  -0.05    -0.01  -0.06  -0.04
   5   6     0.02   0.04   0.03    -0.04  -0.07  -0.06     0.01   0.06   0.03
   6   6    -0.02   0.04  -0.04    -0.03   0.09  -0.08    -0.03   0.06  -0.06
   7   6     0.00  -0.02   0.02     0.02  -0.07   0.07    -0.04   0.02  -0.03
   8   6    -0.02   0.06  -0.05     0.02  -0.06   0.06     0.04  -0.01   0.02
   9   6     0.01  -0.05   0.04    -0.03   0.08  -0.09     0.05  -0.11   0.11
  10   6    -0.04  -0.10  -0.07    -0.03  -0.07  -0.06    -0.02  -0.11  -0.07
  11   6    -0.02  -0.05  -0.03    -0.03  -0.05  -0.03    -0.02   0.05   0.02
  12   6    -0.04  -0.15  -0.09     0.01   0.02   0.02     0.03   0.08   0.05
  13   6     0.02   0.04   0.02     0.00  -0.00  -0.00    -0.01  -0.02  -0.01
  14   1    -0.01  -0.01  -0.01    -0.01  -0.00  -0.00    -0.01  -0.00  -0.00
  15   1    -0.01   0.01  -0.00     0.01   0.02  -0.00     0.02   0.04  -0.00
  16   1    -0.01   0.01   0.01     0.00   0.01   0.02     0.01   0.01   0.04
  17   1     0.04   0.11  -0.01    -0.02  -0.03   0.00    -0.07  -0.17   0.01
  18   1     0.01   0.04   0.11    -0.01  -0.01  -0.03    -0.02  -0.06  -0.17
  19   1    -0.03  -0.07  -0.19    -0.02  -0.03  -0.08     0.00   0.03   0.07
  20   1    -0.07  -0.19   0.01    -0.03  -0.08   0.01     0.02   0.07  -0.00
  21   1    -0.00  -0.01  -0.02     0.04   0.05   0.17     0.02   0.05   0.15
  22   1    -0.01  -0.02   0.00     0.07   0.17  -0.01     0.04   0.15  -0.01
  23   1    -0.02  -0.03  -0.12     0.02   0.07   0.22    -0.01  -0.04  -0.14
  24   1    -0.05  -0.12   0.00     0.10   0.21  -0.00    -0.05  -0.14   0.00
  25   1     0.06  -0.12   0.01     0.14  -0.27   0.02     0.10  -0.17   0.01
  26   1     0.01  -0.02   0.13     0.02  -0.07   0.30     0.03  -0.03   0.19
  27   1    -0.02   0.06  -0.00    -0.10   0.22  -0.01     0.07  -0.10   0.01
  28   1    -0.01   0.01  -0.06    -0.02   0.05  -0.24     0.03  -0.02   0.12
  29   1     0.03  -0.03   0.18    -0.02   0.05  -0.20    -0.03   0.01  -0.08
  30   1     0.07  -0.17   0.01    -0.09   0.19  -0.01    -0.07   0.06  -0.00
  31   1    -0.06   0.12  -0.02     0.15  -0.27   0.04    -0.19   0.33  -0.05
  32   1    -0.01   0.02  -0.13     0.01  -0.05   0.30    -0.03   0.05  -0.37
  33   1     0.12   0.27  -0.01     0.09   0.20  -0.01     0.12   0.29  -0.01
  34   1     0.02   0.10   0.27     0.00   0.08   0.21     0.01   0.10   0.29
  35   1     0.00   0.03   0.08     0.03   0.04   0.13     0.01  -0.04  -0.09
  36   1     0.04   0.08  -0.01     0.05   0.13  -0.01    -0.01  -0.10   0.01
  37   1     0.03   0.17   0.40    -0.01  -0.03  -0.07    -0.02  -0.09  -0.22
  38   1     0.16   0.41  -0.04    -0.03  -0.07   0.01    -0.09  -0.22   0.02
  39   1    -0.08  -0.14   0.01     0.00   0.01  -0.00     0.04   0.08  -0.01
  40   1    -0.01  -0.06  -0.14    -0.00   0.01   0.01     0.01   0.03   0.08
  41   1    -0.02   0.04   0.04    -0.00   0.00   0.00     0.01  -0.03  -0.01
                     52                     53                     54
                        a                      a                      a 
 Frequencies --  1490.8555              1035.7848              1500.3486
 Red. masses --    99.0000                99.0000                99.0000
 Frc consts  --    99.0000                99.0000                99.0000
 IR Inten    --    99.0000                99.0000                99.0000
 Raman Activ --     0.0000                 0.0000                 0.0000
 Depolar     --     0.0000                 0.0000                 0.0000
 Atom AN      X      Y      Z        X      Y      Z        X      Y      Z
   1   6    -0.00  -0.00  -0.00    -0.09  -0.04  -0.01    -0.01   0.02   0.01
   2   6     0.00   0.03   0.02     0.09   0.06   0.01    -0.02   0.04   0.02
   3   6    -0.00  -0.04  -0.03     0.12  -0.02   0.06    -0.05  -0.17  -0.11
   4   6    -0.02  -0.06  -0.05     0.00  -0.16  -0.14    -0.02  -0.07  -0.05
   5   6     0.02   0.09   0.08    -0.12   0.12   0.10    -0.04  -0.06  -0.06
   6   6     0.05  -0.07   0.08    -0.05  -0.10   0.04    -0.01  -0.01  -0.00
   7   6     0.06  -0.07   0.08     0.07   0.13  -0.04    -0.03   0.06  -0.05
   8   6    -0.05   0.05  -0.06     0.06   0.10  -0.06    -0.02   0.05  -0.05
   9   6    -0.04   0.06  -0.07    -0.14  -0.08   0.01    -0.02   0.01  -0.02
  10   6    -0.01  -0.06  -0.04    -0.08   0.13   0.13    -0.02  -0.03  -0.03
  11   6     0.01   0.04   0.03     0.16  -0.16  -0.10    -0.01  -0.05  -0.03
  12   6     0.00   0.03   0.02     0.04  -0.10   0.02    -0.01  -0.06  -0.04
  13   6    -0.00  -0.01  -0.01    -0.09   0.09  -0.02     0.01   0.02   0.01
  14   1    -0.00   0.00  -0.00     0.00   0.01  -0.01     0.04   0.02   0.02
  15   1     0.01   0.02  -0.00    -0.00   0.02  -0.01    -0.01  -0.08   0.00
  16   1     0.01   0.00   0.02    -0.08   0.00  -0.03     0.01  -0.03  -0.07
  17   1    -0.03  -0.07   0.00     0.04  -0.03   0.00    -0.01  -0.09   0.00
  18   1    -0.01  -0.03  -0.07    -0.04   0.06   0.04     0.00  -0.03  -0.08
  19   1    -0.00   0.03   0.09    -0.08   0.03  -0.02     0.07   0.15   0.46
  20   1     0.03   0.09  -0.01     0.11   0.00   0.01     0.18   0.45  -0.03
  21   1     0.03   0.07   0.20    -0.11   0.01  -0.01     0.02   0.05   0.16
  22   1     0.08   0.20  -0.01     0.11  -0.12  -0.04     0.06   0.16  -0.01
  23   1    -0.02  -0.09  -0.29    -0.17   0.08  -0.01     0.03   0.06   0.21
  24   1    -0.12  -0.28   0.00     0.14  -0.02   0.03     0.09   0.19  -0.00
  25   1    -0.14   0.23  -0.01     0.16   0.10   0.00     0.01   0.00  -0.00
  26   1    -0.03   0.05  -0.26    -0.17  -0.12   0.04     0.00  -0.00   0.00
  27   1    -0.13   0.25  -0.01     0.23   0.12  -0.02     0.08  -0.18   0.01
  28   1    -0.06   0.04  -0.27    -0.17  -0.05  -0.03     0.03  -0.04   0.19
  29   1     0.05  -0.03   0.21    -0.16  -0.06  -0.01     0.02  -0.03   0.15
  30   1     0.10  -0.19   0.01     0.23   0.14  -0.03     0.07  -0.14   0.01
  31   1     0.11  -0.19   0.03     0.16   0.11   0.00     0.03  -0.04   0.01
  32   1     0.02  -0.03   0.22    -0.23  -0.13   0.01     0.01  -0.01   0.05
  33   1     0.07   0.17  -0.01     0.18   0.00   0.05     0.04   0.09  -0.00
  34   1     0.00   0.07   0.17    -0.16   0.08  -0.02     0.01   0.03   0.09
  35   1    -0.01  -0.05  -0.13    -0.04   0.01   0.01     0.01   0.04   0.10
  36   1    -0.05  -0.13   0.01     0.16  -0.14  -0.01     0.04   0.10  -0.01
  37   1     0.00  -0.03  -0.06    -0.05  -0.02  -0.05     0.01   0.07   0.17
  38   1    -0.02  -0.07   0.01     0.10  -0.01   0.00     0.07   0.17  -0.02
  39   1     0.02   0.03  -0.00     0.03  -0.03   0.01    -0.05  -0.07   0.01
  40   1     0.01   0.01   0.03    -0.03   0.05   0.04    -0.01  -0.03  -0.08
  41   1     0.00  -0.01  -0.00    -0.05   0.06   0.04    -0.01   0.02   0.02
                     55                     56                     57
                        a                      a                      a 
 Frequencies --  1182.1937              1493.4772              1502.3782
 Red. masses --    99.0000                99.0000                99.0000
 Frc consts  --    99.0000                99.0000                99.0000
 IR Inten    --    99.0000                99.0000                99.0000
 Raman Activ --     0.0000                 0.0000                 0.0000
 Depolar     --     0.0000                 0.0000                 0.0000
 Atom AN      X      Y      Z        X      Y      Z        X      Y      Z
   1   6    -0.00   0.02   0.06     0.00   0.01   0.01    -0.01  -0.00  -0.00
   2   6    -0.00  -0.04  -0.10    -0.02  -0.02  -0.01     0.02   0.05   0.04
   3   6     0.04   0.03   0.12    -0.03  -0.04  -0.04    -0.01  -0.03  -0.02
   4   6     0.00  -0.07  -0.14     0.05   0.06   0.05     0.01   0.05   0.03
   5   6     0.02   0.06   0.14     0.04   0.10   0.08    -0.00  -0.03  -0.02
   6   6     0.00  -0.06  -0.09     0.01  -0.02   0.03     0.03  -0.04   0.04
   7   6    -0.05  -0.02  -0.01    -0.02   0.00  -0.01     0.01  -0.04   0.03
   8   6    -0.07  -0.00   0.14     0.05  -0.07   0.08     0.06  -0.11   0.10
   9   6     0.02  -0.09  -0.25     0.00   0.02  -0.02     0.02   0.00   0.01
  10   6     0.00   0.08   0.30    -0.03  -0.04  -0.04    -0.00  -0.04  -0.02
  11   6     0.00  -0.12  -0.28    -0.06  -0.14  -0.09     0.04   0.10   0.07
  12   6     0.06   0.04   0.23     0.02  -0.01   0.01    -0.05  -0.09  -0.06
  13   6    -0.04  -0.01  -0.13     0.01   0.01   0.00    -0.02  -0.01   0.01
  14   1    -0.04  -0.01  -0.03     0.01   0.01   0.01     0.00   0.00  -0.00
  15   1     0.07  -0.00   0.01    -0.01  -0.03   0.00     0.01   0.02  -0.00
  16   1     0.01  -0.01  -0.02     0.00  -0.01  -0.03     0.01   0.00   0.02
  17   1    -0.01  -0.06  -0.02     0.03   0.04  -0.00    -0.06  -0.16   0.01
  18   1    -0.00   0.01   0.02     0.01   0.01   0.05    -0.02  -0.05  -0.16
  19   1    -0.06   0.01  -0.03     0.03   0.05   0.14     0.01   0.03   0.09
  20   1     0.03   0.06   0.03     0.06   0.14  -0.01     0.03   0.09  -0.00
  21   1    -0.03   0.02   0.03    -0.05  -0.05  -0.17    -0.02  -0.04  -0.13
  22   1    -0.05  -0.06  -0.03    -0.08  -0.17   0.01    -0.05  -0.13   0.01
  23   1    -0.11   0.05  -0.02    -0.03  -0.09  -0.31     0.01   0.02   0.08
  24   1    -0.03   0.09   0.03    -0.13  -0.29   0.00     0.03   0.08   0.00
  25   1    -0.13   0.00  -0.02    -0.05   0.09  -0.01    -0.08   0.13  -0.01
  26   1     0.18   0.07   0.04    -0.01   0.03  -0.11    -0.02   0.03  -0.15
  27   1    -0.09  -0.03  -0.00     0.05  -0.06   0.01    -0.04   0.08  -0.00
  28   1     0.20   0.10  -0.01     0.03  -0.01   0.08    -0.01   0.02  -0.09
  29   1     0.19   0.13  -0.07    -0.06   0.05  -0.29    -0.06   0.07  -0.37
  30   1    -0.05  -0.11   0.04    -0.14   0.26  -0.02    -0.18   0.33  -0.02
  31   1    -0.17   0.08  -0.08     0.04  -0.09   0.01    -0.02   0.00  -0.00
  32   1     0.24   0.09   0.10     0.00  -0.02   0.10    -0.01  -0.01  -0.02
  33   1     0.01   0.18   0.06     0.06   0.11  -0.01     0.04   0.12  -0.01
  34   1    -0.17   0.04  -0.08     0.01   0.04   0.12    -0.01   0.05   0.11
  35   1    -0.07   0.05   0.06     0.06   0.14   0.37    -0.03  -0.12  -0.31
  36   1    -0.05  -0.15  -0.06     0.15   0.37  -0.04    -0.13  -0.30   0.03
  37   1    -0.02  -0.03  -0.06    -0.02  -0.01  -0.03     0.04   0.11   0.28
  38   1     0.11   0.10   0.05    -0.02  -0.02   0.00     0.13   0.27  -0.03
  39   1     0.12  -0.12  -0.01    -0.02  -0.02   0.00     0.06   0.01   0.00
  40   1     0.01   0.03   0.06    -0.01  -0.01  -0.03    -0.00   0.01   0.01
  41   1    -0.06   0.07   0.07    -0.01   0.02   0.01     0.02  -0.01  -0.06
                     58                     59                     60
                        a                      a                      a 
 Frequencies --  1504.1987              1248.7162              1076.2636
 Red. masses --    99.0000                99.0000                99.0000
 Frc consts  --    99.0000                99.0000                99.0000
 IR Inten    --    99.0000                99.0000                99.0000
 Raman Activ --     0.0000                 0.0000                 0.0000
 Depolar     --     0.0000                 0.0000                 0.0000
 Atom AN      X      Y      Z        X      Y      Z        X      Y      Z
   1   6    -0.01  -0.00   0.00     0.02   0.11  -0.06    -0.24  -0.06  -0.10
   2   6     0.03   0.09   0.06     0.01  -0.13   0.03     0.27   0.03   0.10
   3   6    -0.02  -0.03  -0.02     0.08  -0.01   0.06     0.24   0.06   0.07
   4   6     0.05   0.12   0.08     0.14   0.02  -0.12    -0.23  -0.08  -0.07
   5   6     0.00  -0.03  -0.02     0.03  -0.13   0.11    -0.20   0.04  -0.10
   6   6    -0.00   0.03  -0.02    -0.01   0.16   0.04     0.21   0.01   0.10
   7   6     0.06  -0.09   0.09     0.18  -0.11  -0.14     0.25  -0.02   0.07
   8   6    -0.03   0.04  -0.04    -0.00   0.16   0.14    -0.18   0.13  -0.12
   9   6     0.02  -0.04   0.04     0.05  -0.02  -0.08    -0.09  -0.14  -0.02
  10   6    -0.00   0.00   0.00    -0.05  -0.03  -0.01     0.12   0.07   0.04
  11   6    -0.02  -0.04  -0.03    -0.02   0.07   0.02     0.09  -0.03   0.04
  12   6     0.02   0.03   0.01    -0.06  -0.03  -0.03     0.08  -0.22  -0.13
  13   6     0.02   0.01  -0.01     0.03   0.03   0.00    -0.04   0.20   0.11
  14   1     0.01   0.02  -0.01    -0.07  -0.04   0.01    -0.04  -0.00  -0.01
  15   1     0.01   0.01   0.00    -0.06  -0.05  -0.01    -0.11  -0.00  -0.02
  16   1     0.02  -0.01   0.01     0.12  -0.00   0.04    -0.09   0.00  -0.02
  17   1    -0.10  -0.26   0.02     0.09   0.00   0.00     0.07   0.02   0.03
  18   1    -0.03  -0.09  -0.26    -0.21   0.04  -0.04     0.08   0.00   0.02
  19   1     0.02   0.05   0.13    -0.24   0.09  -0.01     0.08   0.02   0.04
  20   1     0.06   0.13  -0.01    -0.05   0.05   0.02     0.03   0.02   0.02
  21   1    -0.06  -0.11  -0.35    -0.23   0.15   0.07    -0.04  -0.04  -0.05
  22   1    -0.15  -0.35   0.02    -0.11  -0.03  -0.02    -0.10   0.02  -0.02
  23   1    -0.01   0.03   0.08    -0.07  -0.02  -0.06     0.01  -0.01   0.01
  24   1     0.02   0.09   0.00    -0.16   0.16   0.03    -0.16   0.00  -0.03
  25   1     0.03  -0.08   0.01    -0.23  -0.20   0.03    -0.00  -0.06   0.03
  26   1    -0.00  -0.02   0.08     0.10   0.12  -0.07     0.05   0.00   0.01
  27   1    -0.17   0.31  -0.02    -0.17   0.03  -0.03    -0.04  -0.04   0.02
  28   1    -0.06   0.07  -0.34    -0.10  -0.14   0.12     0.09   0.00   0.04
  29   1     0.03  -0.03   0.18    -0.18  -0.02  -0.09    -0.01   0.06  -0.07
[...]
  33   1     0.00  -0.00  -0.01     0.02  -0.01  -0.25     0.02   0.00  -0.17
  34   1     0.00   0.01  -0.00    -0.07  -0.14   0.07    -0.13  -0.28   0.12
  35   1     0.02   0.04  -0.02    -0.00  -0.01  -0.00    -0.00  -0.01  -0.02
  36   1    -0.00  -0.00  -0.02    -0.01   0.02   0.18    -0.02   0.05   0.60
  37   1     0.04   0.08  -0.04    -0.04  -0.08   0.03    -0.12  -0.28   0.12
  38   1     0.00  -0.01  -0.08    -0.00   0.02   0.14    -0.01   0.04   0.27
  39   1     0.01  -0.08  -0.59     0.00  -0.00  -0.02     0.00  -0.01  -0.06
  40   1     0.26   0.62  -0.27     0.01   0.01  -0.00     0.02   0.04  -0.01
  41   1     0.03  -0.01   0.05    -0.01  -0.00  -0.00    -0.01  -0.00   0.00
                    103                    104                    105
                        a                      a                      a 
 Frequencies --  2991.5438              2983.1120              2979.7961
 Red. masses --    99.0000                99.0000                99.0000
 Frc consts  --    99.0000                99.0000                99.0000
 IR Inten    --    99.0000                99.0000                99.0000
 Raman Activ --     0.0000                 0.0000                 0.0000
 Depolar     --     0.0000                 0.0000                 0.0000
 Atom AN      X      Y      Z        X      Y      Z        X      Y      Z
   1   6     0.00  -0.01  -0.00    -0.00   0.01   0.01    -0.00   0.00   0.01
   2   6     0.02   0.04   0.02    -0.01  -0.03  -0.05    -0.01  -0.02  -0.06
   3   6     0.02   0.05   0.01    -0.01  -0.02  -0.07     0.00   0.00  -0.07
   4   6     0.05   0.12   0.00     0.01   0.03  -0.06     0.03   0.08  -0.06
   5   6     0.02   0.04   0.01    -0.00  -0.01  -0.07     0.00   0.01  -0.06
   6   6    -0.01   0.01   0.02     0.00  -0.00  -0.03    -0.00  -0.00  -0.04
   7   6    -0.02   0.04   0.01    -0.03   0.06  -0.03     0.04  -0.08   0.02
   8   6     0.03  -0.05   0.01     0.05  -0.10   0.03    -0.05   0.09   0.01
   9   6     0.01  -0.02  -0.00     0.00  -0.01   0.02     0.00   0.00   0.07
  10   6    -0.01  -0.04   0.00     0.00   0.02   0.06    -0.01  -0.00   0.06
  11   6    -0.05  -0.13   0.02     0.01   0.02   0.05    -0.02  -0.05   0.05
  12   6    -0.02  -0.04   0.00     0.02   0.05   0.05    -0.01  -0.01   0.03
  13   6     0.02   0.02   0.00    -0.01  -0.00  -0.01     0.00   0.00  -0.01
  14   1    -0.02   0.02   0.01     0.01  -0.02  -0.01     0.01  -0.02  -0.01
  15   1     0.00  -0.00   0.02    -0.00  -0.00  -0.05    -0.00  -0.00  -0.04
  16   1     0.01   0.03  -0.01    -0.01  -0.01   0.01    -0.00   0.00   0.00
  17   1    -0.00   0.00  -0.12     0.00   0.00   0.22     0.01   0.00   0.26
  18   1    -0.05  -0.14   0.06     0.04   0.09  -0.05     0.03   0.06  -0.04
  19   1    -0.06  -0.15   0.07     0.03   0.08  -0.04    -0.00  -0.01  -0.01
  20   1    -0.00   0.00  -0.09     0.01   0.00   0.28     0.01   0.01   0.25
  21   1    -0.18  -0.46   0.20    -0.05  -0.14   0.05    -0.12  -0.31   0.13
  22   1     0.00   0.01  -0.20     0.01   0.01   0.16     0.01   0.01   0.09
  23   1    -0.06  -0.13   0.05     0.02   0.05  -0.03    -0.00  -0.01  -0.01
  24   1     0.00   0.01  -0.08    -0.01  -0.01   0.29    -0.00  -0.00   0.22
  25   1     0.00  -0.00  -0.05    -0.00   0.01   0.09    -0.00   0.02   0.17
  26   1     0.02  -0.03  -0.01    -0.00   0.01  -0.00     0.01  -0.02  -0.01
  27   1    -0.00   0.01   0.04    -0.01   0.03   0.20     0.00  -0.03  -0.20
  28   1     0.08  -0.15  -0.05     0.14  -0.27  -0.09    -0.18   0.35   0.11
  29   1    -0.11   0.22   0.07    -0.20   0.41   0.13     0.18  -0.37  -0.11
  30   1     0.00  -0.02  -0.10     0.01  -0.04  -0.23    -0.01   0.02   0.10
  31   1     0.00  -0.00   0.00     0.01  -0.01  -0.09     0.02  -0.04  -0.28
  32   1    -0.03   0.06   0.01    -0.02   0.03   0.01    -0.03   0.05   0.02
  33   1    -0.01  -0.00   0.04     0.02  -0.01  -0.24     0.01  -0.01  -0.19
  34   1     0.06   0.12  -0.05    -0.03  -0.07   0.04     0.01   0.02   0.00
  35   1     0.20   0.46  -0.22    -0.02  -0.05   0.03     0.08   0.19  -0.09
  36   1    -0.01  -0.00   0.17     0.01  -0.01  -0.19     0.00  -0.01  -0.08
  37   1     0.06   0.13  -0.07    -0.07  -0.15   0.08     0.02   0.04  -0.01
  38   1    -0.00   0.00   0.06     0.01  -0.02  -0.27     0.00  -0.01  -0.11
  39   1     0.00   0.00  -0.02    -0.00   0.00   0.04    -0.00   0.00   0.02
  40   1    -0.02  -0.05   0.03     0.00   0.01  -0.01    -0.01  -0.02   0.01
  41   1    -0.04  -0.00  -0.01     0.03   0.01   0.01     0.00   0.00  -0.00
                    106                    107                    108
                        a                      a                      a 
 Frequencies --  2972.4585              2979.3156              2976.3209
 Red. masses --    99.0000                99.0000                99.0000
 Frc consts  --    99.0000                99.0000                99.0000
 IR Inten    --    99.0000                99.0000                99.0000
 Raman Activ --     0.0000                 0.0000                 0.0000
 Depolar     --     0.0000                 0.0000                 0.0000
 Atom AN      X      Y      Z        X      Y      Z        X      Y      Z
   1   6    -0.00  -0.01   0.00    -0.00   0.02   0.01    -0.00  -0.00  -0.00
   2   6    -0.01  -0.01  -0.07    -0.04  -0.08  -0.07    -0.02  -0.03  -0.03
   3   6     0.06   0.14   0.03    -0.01  -0.03  -0.04     0.03   0.06   0.05
   4   6    -0.00  -0.01  -0.06     0.01   0.04  -0.00    -0.01  -0.03  -0.01
   5   6    -0.01  -0.04  -0.06     0.01   0.01   0.04     0.03   0.08   0.03
   6   6     0.03  -0.06   0.04     0.00   0.00   0.06    -0.04   0.07  -0.10
   7   6    -0.01   0.02   0.01    -0.01   0.03   0.05     0.00  -0.01  -0.04
   8   6    -0.01   0.02   0.02     0.01  -0.01   0.04     0.01  -0.03  -0.02
   9   6     0.00  -0.00   0.01     0.01  -0.02   0.02     0.02  -0.04   0.05
  10   6    -0.00  -0.01  -0.02    -0.01  -0.03  -0.04    -0.01  -0.02   0.02
  11   6     0.00  -0.00  -0.02     0.02   0.05  -0.05     0.00   0.02   0.03
  12   6     0.01   0.02  -0.00    -0.02  -0.07  -0.08    -0.01  -0.01   0.01
  13   6    -0.00  -0.00   0.00     0.01   0.00   0.01     0.00   0.00  -0.00
  14   1    -0.00   0.00   0.00     0.02  -0.03  -0.01     0.00  -0.01  -0.00
  15   1    -0.00  -0.00  -0.01    -0.00   0.00  -0.04    -0.00   0.00   0.00
  16   1     0.01   0.03  -0.01    -0.01  -0.03   0.02     0.00   0.01  -0.00
  17   1     0.01   0.01   0.30     0.01  -0.00   0.40     0.00  -0.00   0.17
  18   1     0.01   0.04  -0.03     0.13   0.31  -0.15     0.06   0.14  -0.06
  19   1    -0.21  -0.52   0.24     0.05   0.12  -0.06    -0.09  -0.23   0.11
  20   1    -0.00   0.01  -0.38     0.00  -0.00   0.19    -0.01   0.00  -0.28
  21   1     0.01   0.03  -0.02    -0.06  -0.15   0.06     0.05   0.13  -0.06
  22   1     0.01   0.00   0.23     0.00   0.00  -0.06     0.00  -0.00   0.11
  23   1     0.07   0.14  -0.06    -0.02  -0.04   0.02    -0.14  -0.31   0.12
  24   1    -0.00  -0.01   0.28     0.00   0.00  -0.15     0.01   0.01  -0.24
  25   1     0.01  -0.03  -0.24     0.01  -0.02  -0.23    -0.01   0.06   0.48
  26   1    -0.13   0.23   0.08    -0.01   0.02   0.02     0.17  -0.31  -0.11
  27   1    -0.00  -0.00  -0.02    -0.00  -0.01  -0.15     0.00   0.01   0.12
  28   1     0.04  -0.07  -0.02     0.06  -0.11  -0.03    -0.01   0.03   0.00
  29   1     0.03  -0.07  -0.02    -0.02   0.05   0.02    -0.06   0.11   0.03
  30   1    -0.00  -0.00  -0.06     0.00  -0.02  -0.15     0.00  -0.00   0.03
  31   1     0.00  -0.01  -0.04     0.01  -0.02  -0.10     0.02  -0.04  -0.22
  32   1    -0.01   0.02   0.00    -0.05   0.08   0.02    -0.09   0.16   0.04
  33   1    -0.01   0.00   0.09    -0.02   0.01   0.22     0.00  -0.00  -0.02
  34   1     0.02   0.04  -0.02     0.05   0.11  -0.05     0.04   0.08  -0.03
  35   1    -0.00  -0.00  -0.00    -0.10  -0.22   0.10    -0.02  -0.05   0.03
  36   1    -0.00   0.01   0.08     0.00   0.01   0.04     0.01  -0.01  -0.13
  37   1    -0.03  -0.07   0.03     0.10   0.23  -0.13     0.03   0.06  -0.03
  38   1     0.00   0.00  -0.03    -0.02   0.03   0.43    -0.00  -0.00   0.01
  39   1    -0.00  -0.00  -0.00     0.00  -0.00  -0.04    -0.00   0.00   0.01
  40   1     0.00   0.01  -0.00    -0.00  -0.01   0.00    -0.00  -0.00   0.00
  41   1     0.00   0.00   0.00    -0.03  -0.01  -0.01    -0.00  -0.00  -0.00
                    109                    110                    111
                        a                      a                      a 
 Frequencies --  2973.6578              2977.6774              2996.3715
 Red. masses --    99.0000                99.0000                99.0000
 Frc consts  --    99.0000                99.0000                99.0000
 IR Inten    --    99.0000                99.0000                99.0000
 Raman Activ --     0.0000                 0.0000                 0.0000
 Depolar     --     0.0000                 0.0000                 0.0000
 Atom AN      X      Y      Z        X      Y      Z        X      Y      Z
   1   6    -0.00  -0.00  -0.00    -0.00   0.01   0.00    -0.00  -0.01  -0.00
   2   6    -0.01  -0.02  -0.01    -0.04  -0.09  -0.05     0.01   0.02   0.00
   3   6     0.01   0.03   0.02    -0.00  -0.01   0.01     0.01   0.03  -0.00
   4   6     0.00   0.00   0.00     0.01   0.02   0.03     0.03   0.09  -0.01
   5   6     0.00   0.00  -0.00     0.02   0.04   0.07     0.01   0.03  -0.01
   6   6     0.01  -0.01  -0.01     0.00   0.00   0.03    -0.02   0.04  -0.00
   7   6     0.01  -0.03  -0.03     0.01  -0.03  -0.01    -0.06   0.12   0.00
   8   6     0.01  -0.02  -0.01     0.00  -0.01  -0.04    -0.06   0.11   0.00
   9   6    -0.04   0.07  -0.05    -0.01   0.02  -0.09    -0.02   0.04  -0.01
  10   6     0.03   0.09   0.10     0.01   0.03  -0.03     0.01   0.03  -0.01
  11   6    -0.01  -0.01   0.05    -0.01  -0.03  -0.02     0.03   0.08  -0.01
  12   6    -0.04  -0.10  -0.03     0.03   0.08   0.05     0.01   0.02  -0.00
  13   6     0.01   0.01  -0.00    -0.01  -0.00  -0.00    -0.01  -0.01  -0.00
  14   1     0.00  -0.00  -0.00     0.02  -0.02  -0.01    -0.01   0.01   0.01
  15   1    -0.00   0.00  -0.00    -0.00   0.00  -0.02     0.00  -0.00   0.01
  16   1    -0.00   0.00   0.00    -0.01  -0.03   0.01     0.01   0.03  -0.01
  17   1     0.00  -0.00   0.08     0.00  -0.01   0.34     0.00   0.00  -0.04
  18   1     0.03   0.07  -0.03     0.13   0.32  -0.15    -0.03  -0.07   0.03
  19   1    -0.04  -0.10   0.05     0.01   0.02  -0.01    -0.04  -0.09   0.04
  20   1    -0.00   0.00  -0.12    -0.00  -0.00  -0.04     0.00   0.00  -0.03
  21   1    -0.00  -0.01   0.00    -0.03  -0.08   0.04    -0.13  -0.32   0.14
  22   1     0.00   0.00  -0.00    -0.00   0.00  -0.15     0.00   0.01  -0.10
  23   1    -0.00  -0.01   0.00    -0.06  -0.14   0.06    -0.05  -0.11   0.04
  24   1     0.00   0.00   0.00     0.01   0.01  -0.33     0.00   0.00  -0.01
  25   1     0.00  -0.00   0.01     0.00  -0.01  -0.12    -0.00   0.01   0.06
  26   1    -0.03   0.05   0.01    -0.00   0.00   0.01     0.08  -0.15  -0.05
  27   1     0.00   0.00   0.07     0.00  -0.00  -0.01    -0.01   0.03   0.14
  28   1    -0.04   0.09   0.02    -0.05   0.10   0.03     0.23  -0.45  -0.15
  29   1    -0.03   0.07   0.02    -0.01   0.02   0.00     0.21  -0.42  -0.13
  30   1     0.00  -0.00  -0.01     0.00   0.01   0.15    -0.01   0.03   0.13
  31   1    -0.02   0.05   0.26    -0.03   0.06   0.37    -0.01   0.01   0.05
  32   1     0.18  -0.31  -0.08     0.08  -0.15  -0.05     0.08  -0.14  -0.03
  33   1     0.04  -0.01  -0.51    -0.00   0.01   0.04     0.00   0.00  -0.02
  34   1    -0.15  -0.31   0.15    -0.05  -0.10   0.04    -0.04  -0.09   0.04
  35   1     0.01   0.03  -0.01     0.05   0.12  -0.06    -0.12  -0.28   0.13
  36   1     0.00  -0.01  -0.17    -0.01   0.01   0.13     0.01   0.00  -0.08
  37   1     0.15   0.34  -0.18    -0.13  -0.29   0.15    -0.03  -0.07   0.04
  38   1    -0.02   0.01   0.28     0.02  -0.02  -0.34     0.00   0.00  -0.03
  39   1     0.00  -0.00  -0.01    -0.00   0.00   0.02    -0.00  -0.00   0.01
  40   1    -0.01  -0.03   0.02     0.01   0.02  -0.01     0.02   0.04  -0.02
  41   1    -0.02  -0.00  -0.01     0.02   0.00   0.01     0.03   0.00   0.01
                    112                    113                    114
                        a                      a                      a 
 Frequencies --  2988.5764              3031.4544              3031.6540
 Red. masses --    99.0000                99.0000                99.0000
 Frc consts  --    99.0000                99.0000                99.0000
 IR Inten    --    99.0000                99.0000                99.0000
 Raman Activ --     0.0000                 0.0000                 0.0000
 Depolar     --     0.0000                 0.0000                 0.0000
 Atom AN      X      Y      Z        X      Y      Z        X      Y      Z
   1   6     0.00  -0.01  -0.01    -0.01   0.04   0.02     0.05  -0.24  -0.14
   2   6     0.01   0.03   0.03     0.00   0.00   0.00    -0.01  -0.02  -0.02
   3   6     0.01   0.03   0.03     0.00   0.00   0.00    -0.00  -0.01  -0.01
   4   6     0.03   0.06   0.04     0.00   0.00   0.00    -0.00  -0.00  -0.00
   5   6     0.01   0.02   0.06     0.00   0.00   0.00    -0.00  -0.00  -0.00
   6   6     0.01  -0.01   0.06     0.00  -0.00  -0.00     0.00  -0.00  -0.00
   7   6     0.03  -0.06   0.06     0.00  -0.00  -0.00     0.00  -0.00  -0.00
   8   6     0.02  -0.04   0.05     0.00  -0.00  -0.00     0.00  -0.00  -0.00
   9   6     0.01  -0.01   0.06     0.00  -0.00  -0.00     0.00  -0.00  -0.00
  10   6     0.01   0.03   0.04    -0.00  -0.00  -0.00    -0.00  -0.00  -0.00
  11   6     0.04   0.09   0.02    -0.01  -0.01  -0.01    -0.00  -0.00  -0.00
  12   6     0.01   0.04   0.02    -0.01  -0.02  -0.02    -0.00  -0.00  -0.00
  13   6    -0.01  -0.01  -0.01    -0.19  -0.13  -0.16    -0.03  -0.02  -0.03
  14   1    -0.02   0.02   0.01     0.07  -0.09  -0.04    -0.39   0.51   0.22
  15   1     0.00  -0.00   0.03    -0.00   0.00  -0.08     0.03  -0.03   0.47
  16   1     0.01   0.02  -0.01    -0.03  -0.06   0.03     0.17   0.35  -0.19
  17   1    -0.00   0.00  -0.16     0.00   0.00  -0.01    -0.00  -0.00   0.08
  18   1    -0.05  -0.12   0.06    -0.00  -0.01   0.01     0.02   0.06  -0.03
  19   1    -0.04  -0.11   0.05    -0.00  -0.01   0.00     0.01   0.04  -0.02
  20   1    -0.00   0.00  -0.17     0.00   0.00  -0.01    -0.00  -0.00   0.05
  21   1    -0.09  -0.23   0.10    -0.00  -0.00   0.00     0.01   0.02  -0.01
  22   1    -0.00   0.01  -0.24    -0.00   0.00  -0.00     0.00  -0.00   0.01
  23   1    -0.03  -0.06   0.03    -0.00  -0.00   0.00     0.00   0.01  -0.00
  24   1     0.00   0.01  -0.22     0.00   0.00  -0.00    -0.00  -0.00   0.01
  25   1     0.01  -0.03  -0.23     0.00  -0.00   0.00     0.00   0.00   0.00
  26   1    -0.04   0.07   0.03    -0.00   0.00   0.00    -0.00   0.00   0.00
  27   1     0.00  -0.03  -0.28     0.00  -0.00   0.00     0.00   0.00   0.00
  28   1    -0.12   0.24   0.09    -0.00   0.00   0.00    -0.00   0.00   0.00
  29   1    -0.08   0.15   0.06    -0.00   0.01   0.00    -0.00   0.00   0.00
  30   1     0.00  -0.03  -0.23     0.00  -0.00   0.00     0.00   0.00   0.00
  31   1     0.02  -0.03  -0.22    -0.00   0.00   0.01    -0.00   0.00   0.00
  32   1    -0.04   0.06   0.02    -0.00   0.01   0.00    -0.00   0.00   0.00
  33   1     0.01  -0.01  -0.18    -0.00   0.00   0.01    -0.00   0.00   0.00
  34   1    -0.04  -0.08   0.04     0.01   0.01  -0.01     0.00   0.00  -0.00
  35   1    -0.14  -0.33   0.17     0.02   0.05  -0.03     0.00   0.01  -0.00
  36   1     0.01  -0.01  -0.24    -0.00   0.00   0.05    -0.00   0.00   0.01
  37   1    -0.06  -0.13   0.07     0.03   0.06  -0.03     0.00   0.01  -0.01
  38   1     0.01  -0.01  -0.14    -0.00   0.00   0.09    -0.00   0.00   0.02
  39   1    -0.00   0.00   0.04    -0.05   0.04   0.55    -0.01   0.01   0.10
  40   1     0.01   0.03  -0.02     0.12   0.34  -0.19     0.02   0.06  -0.03
  41   1     0.03   0.00   0.01     0.58   0.10   0.22     0.10   0.02   0.04
                    115                    116                    117
                        a                      a                      a 
 Frequencies --  2983.3668              3037.2260              3037.4048
 Red. masses --    99.0000                99.0000                99.0000
 Frc consts  --    99.0000                99.0000                99.0000
 IR Inten    --    99.0000                99.0000                99.0000
 Raman Activ --     0.0000                 0.0000                 0.0000
 Depolar     --     0.0000                 0.0000                 0.0000
 Atom AN      X      Y      Z        X      Y      Z        X      Y      Z
   1   6     0.00   0.01  -0.00     0.04  -0.01   0.01    -0.14   0.02  -0.02
   2   6    -0.01  -0.03   0.01     0.00   0.00   0.00    -0.01  -0.00  -0.00
   3   6    -0.01  -0.03   0.03     0.00   0.00   0.00    -0.00  -0.00  -0.00
   4   6    -0.03  -0.08   0.05    -0.00  -0.00   0.00    -0.00  -0.00  -0.00
   5   6    -0.00  -0.01   0.07    -0.00  -0.00   0.00    -0.00  -0.00  -0.00
   6   6    -0.01   0.02   0.07    -0.00   0.00   0.00     0.00  -0.00   0.00
   7   6    -0.04   0.09   0.08    -0.00   0.00  -0.00     0.00  -0.00  -0.00
   8   6    -0.03   0.07   0.08     0.00  -0.00   0.00     0.00  -0.00   0.00
   9   6    -0.01   0.02   0.09    -0.00   0.00  -0.00    -0.00   0.00  -0.00
  10   6    -0.01  -0.00   0.08     0.00   0.00   0.00     0.00   0.00   0.00
  11   6    -0.03  -0.07   0.07    -0.00  -0.00  -0.00    -0.00  -0.00  -0.00
  12   6    -0.01  -0.01   0.05     0.00  -0.00  -0.00     0.00  -0.00  -0.00
  13   6     0.00   0.01  -0.01     0.13  -0.08  -0.01     0.04  -0.02  -0.00
  14   1     0.01  -0.01  -0.00    -0.10   0.15   0.07     0.35  -0.50  -0.22
  15   1     0.00   0.00   0.01    -0.00  -0.00  -0.15     0.00   0.01   0.50
  16   1    -0.01  -0.02   0.01    -0.05  -0.12   0.05     0.16   0.42  -0.18
  17   1    -0.00  -0.00   0.01     0.00   0.00  -0.00    -0.00  -0.00   0.01
  18   1     0.05   0.11  -0.05    -0.00  -0.00   0.00     0.00   0.01  -0.00
  19   1     0.04   0.10  -0.04    -0.00  -0.00   0.00     0.00   0.01  -0.01
  20   1    -0.00  -0.01  -0.08     0.00   0.00  -0.00    -0.00  -0.00   0.01
  21   1     0.11   0.29  -0.12    -0.00   0.00  -0.00     0.00   0.00  -0.00
  22   1    -0.01  -0.01  -0.05    -0.00   0.00  -0.00     0.00  -0.00   0.00
  23   1     0.01   0.02   0.00     0.00   0.00  -0.00     0.00   0.00  -0.00
  24   1     0.00   0.00  -0.24     0.00  -0.00  -0.00    -0.00  -0.00   0.00
  25   1     0.00  -0.02  -0.26    -0.00   0.00   0.00     0.00  -0.00  -0.00
  26   1     0.02  -0.04  -0.00     0.00  -0.00  -0.00    -0.00   0.00   0.00
  27   1    -0.01  -0.00  -0.17    -0.00   0.00   0.00     0.00   0.00   0.00
  28   1     0.16  -0.32  -0.09     0.00  -0.00  -0.00    -0.00   0.00   0.00
  29   1     0.11  -0.22  -0.06    -0.00   0.00   0.00    -0.00   0.00   0.00
  30   1    -0.00  -0.01  -0.23    -0.00  -0.00  -0.00     0.00  -0.00  -0.00
  31   1     0.02  -0.04  -0.32    -0.00   0.00   0.00    -0.00   0.00   0.00
  32   1     0.01  -0.01   0.01     0.00  -0.00  -0.00     0.00  -0.00  -0.00
  33   1     0.02  -0.02  -0.30    -0.00   0.00   0.00    -0.00   0.00  -0.00
  34   1     0.01   0.01   0.01    -0.00  -0.00   0.00    -0.00  -0.00   0.00
  35   1     0.12   0.29  -0.13     0.00   0.01  -0.01     0.00   0.00  -0.00
  36   1     0.00  -0.02  -0.11    -0.00   0.00   0.01    -0.00   0.00   0.00
  37   1     0.01   0.04  -0.01     0.00   0.00  -0.00     0.00  -0.00  -0.00
  38   1     0.00  -0.02  -0.16     0.00  -0.00   0.01     0.00  -0.00   0.00
  39   1    -0.00   0.00   0.03    -0.01   0.04   0.48    -0.00   0.01   0.14
  40   1    -0.01  -0.03   0.01     0.17   0.37  -0.18     0.05   0.11  -0.05
  41   1     0.01   0.00  -0.00    -0.63  -0.13  -0.25    -0.19  -0.04  -0.08
