      -----------------------------------------------------------      
     |                   =====================                   |     
     |                           x T B                           |     
     |                   =====================                   |     
     |                         S. Grimme                         |     
     |          Mulliken Center for Theoretical Chemistry        |     
     |                    University of Bonn                     |     
      -----------------------------------------------------------      

   * xtb version 6.6.1 (8d0f1dd) compiled by 'stahn@M-Bot' on 2023-08-01

   xtb is free software: you can redistribute it and/or modify it under
   the terms of the GNU Lesser General Public License as published by
   the Free Software Foundation, either version 3 of the License, or
   (at your option) any later version.
   
   xtb is distributed in the hope that it will be useful,
   but WITHOUT ANY WARRANTY; without even the implied warranty of
   MERCHANTABILITY or FITNESS FOR A PARTICULAR PURPOSE.  See the
   GNU Lesser General Public License for more details.
   
   Cite this work as:
   * C. Bannwarth, E. Caldeweyher, S. Ehlert, A. Hansen, P. Pracht,
     J. Seibert, S. Spicher, S. Grimme, WIREs Comput. Mol. Sci., 2020, 11,
     e01493. DOI: 10.1002/wcms.1493
   
   for GFN2-xTB:
   * C. Bannwarth, S. Ehlert and S. Grimme., J. Chem. Theory Comput., 2019,
     15, 1652-1671. DOI: 10.1021/acs.jctc.8b01176
   for GFN1-xTB:
   * S. Grimme, C. Bannwarth, P. Shushkov, J. Chem. Theory Comput., 2017,
     13, 1989-2009. DOI: 10.1021/acs.jctc.7b00118
   for GFN0-xTB:
   * P. Pracht, E. Caldeweyher, S. Ehlert, S. Grimme, ChemRxiv, 2019, preprint.
     DOI: 10.26434/chemrxiv.8326202.v1
   for GFN-FF:
   * S. Spicher and S. Grimme, Angew. Chem. Int. Ed., 2020, 59, 15665-15673.
     DOI: 10.1002/anie.202004239
   
   for ALPB and GBSA implicit solvation:
   * S. Ehlert, M. Stahn, S. Spicher, S. Grimme, J. Chem. Theory Comput.,
     2021, 17, 4250-4261. DOI: 10.1021/acs.jctc.1c00471
   
   for DFT-D4:
   * E. Caldeweyher, C. Bannwarth and S. Grimme, J. Chem. Phys., 2017,
     147, 034112. DOI: 10.1063/1.4993215
   * E. Caldeweyher, S. Ehlert, A. Hansen, H. Neugebauer, S. Spicher,
     C. Bannwarth and S. Grimme, J. Chem. Phys., 2019, 150, 154122.
     DOI: 10.1063/1.5090222
   * E. Caldeweyher, J.-M. Mewes, S. Ehlert and S. Grimme, Phys. Chem. Chem. Phys.
     2020, 22, 8499-8512. DOI: 10.1039/D0CP00502A
   
   for sTDA-xTB:
   * S. Grimme and C. Bannwarth, J. Chem. Phys., 2016, 145, 054103.
     DOI: 10.1063/1.4959605
   
   in the mass-spec context:
   * V. Asgeirsson, C. Bauer and S. Grimme, Chem. Sci., 2017, 8, 4879.
     DOI: 10.1039/c7sc00601b
   * J. Koopman and S. Grimme, ACS Omega 2019, 4, 12, 15120-15133.
     DOI: 10.1021/acsomega.9b02011
   
   for metadynamics refer to:
   * S. Grimme, J. Chem. Theory Comput., 2019, 155, 2847-2862
     DOI: 10.1021/acs.jctc.9b00143
   
   for SPH calculations refer to:
   * S. Spicher and S. Grimme, J. Chem. Theory Comput., 2021, 17, 1701-1714
     DOI: 10.1021/acs.jctc.0c01306
   
   with help from (in alphabetical order)
   P. Atkinson, C. Bannwarth, F. Bohle, G. Brandenburg, E. Caldeweyher
   M. Checinski, S. Dohm, S. Ehlert, S. Ehrlich, I. Gerasimov, C. Hölzer
   A. Katbashev, J. Koopman, C. Lavigne, S. Lehtola, F. März, M. Müller,
   F. Musil, H. Neugebauer, J. Pisarek, C. Plett, P. Pracht, F. Pultar,
   J. Seibert, P. Shushkov, S. Spicher, M. Stahn, M. Steiner, T. Strunk,
   J. Stückrath, T. Rose, and J. Unsleber
   
 * started run on 2024/04/20 at 10:57:02.311     

           -------------------------------------------------
          |                Calculation Setup                |
           -------------------------------------------------

          program call               : xtb unfolded.xyz --gfn 2 --ohess -P 4
          coordinate file            : unfolded.xyz
          omp threads                :                     4

   ID    Z sym.   atoms
    1    6 C      1-13
    2    1 H      14-41

           -------------------------------------------------
          |                 G F N 2 - x T B                 |
           -------------------------------------------------

        Reference                      10.1021/acs.jctc.8b01176
      * Hamiltonian:
        H0-scaling (s, p, d)           1.850000    2.230000    2.230000
        zeta-weighting                 0.500000
      * Dispersion:
        s8                             2.700000
        a1                             0.520000
        a2                             5.000000
        s9                             5.000000
      * Repulsion:
        kExp                           1.500000    1.000000
        rExp                           1.000000
      * Coulomb:
        alpha                          2.000000
        third order                    shell-resolved
        anisotropic                    true
        a3                             3.000000
        a5                             4.000000
        cn-shift                       1.200000
        cn-exp                         4.000000
        max-rad                        5.000000


          ...................................................
          :                      SETUP                      :
          :.................................................:
          :  # basis functions                  80          :
          :  # atomic orbitals                  80          :
          :  # shells                           54          :
          :  # electrons                        80          :
          :  max. iterations                   250          :
          :  Hamiltonian                  GFN2-xTB          :
          :  restarted?                      false          :
          :  GBSA solvation                  false          :
          :  PC potential                    false          :
          :  electronic temp.          300.0000000     K    :
          :  accuracy                    1.0000000          :
          :  -> integral cutoff          0.2500000E+02      :
          :  -> integral neglect         0.1000000E-07      :
          :  -> SCF convergence          0.1000000E-05 Eh   :
          :  -> wf. convergence          0.1000000E-03 e    :
          :  Broyden damping             0.4000000          :
          ...................................................

 iter      E             dE          RMSdq      gap      omega  full diag
   1    -42.6433262 -0.426433E+02  0.251E+00   12.35       0.0  T
   2    -42.7512568 -0.107931E+00  0.135E+00   12.18       1.0  T
   3    -42.7526542 -0.139746E-02  0.718E-01   12.17       1.0  T
   4    -42.7529617 -0.307461E-03  0.839E-02   12.20       1.0  T
   5    -42.7529686 -0.690562E-05  0.417E-02   12.19       1.0  T
   6    -42.7529713 -0.268864E-05  0.239E-03   12.19       6.5  T
   7    -42.7529713 -0.536401E-07  0.109E-03   12.19      14.4  T
   8    -42.7529713 -0.396668E-08  0.271E-04   12.19      57.7  T
   9    -42.7529713 -0.233470E-09  0.875E-05   12.19     178.5  T

   *** convergence criteria satisfied after 9 iterations ***

         #    Occupation            Energy/Eh            Energy/eV
      -------------------------------------------------------------
         1        2.0000           -0.6221874             -16.9306
       ...           ...                  ...                  ...
        34        2.0000           -0.4257896             -11.5863
        35        2.0000           -0.4212702             -11.4633
        36        2.0000           -0.4179584             -11.3732
        37        2.0000           -0.4176698             -11.3654
        38        2.0000           -0.4146448             -11.2831
        39        2.0000           -0.4138269             -11.2608
        40        2.0000           -0.4078222             -11.0974 (HOMO)
        41                          0.0403154               1.0970 (LUMO)
        42                          0.0552869               1.5044
        43                          0.0677034               1.8423
        44                          0.1002999               2.7293
        45                          0.1019025               2.7729
       ...                                ...                  ...
        80                          0.3109389               8.4611
      -------------------------------------------------------------
                  HL-Gap            0.4481376 Eh           12.1944 eV
             Fermi-level           -0.1837534 Eh           -5.0002 eV

 SCC (total)                   0 d,  0 h,  0 min,  0.024 sec
 SCC setup                      ...        0 min,  0.000 sec (  1.054%)
 Dispersion                     ...        0 min,  0.000 sec (  1.945%)
 classical contributions        ...        0 min,  0.000 sec (  0.167%)
 integral evaluation            ...        0 min,  0.002 sec (  6.481%)
 iterations                     ...        0 min,  0.015 sec ( 61.798%)
 molecular gradient             ...        0 min,  0.006 sec ( 27.161%)
 printout                       ...        0 min,  0.000 sec (  1.257%)

         :::::::::::::::::::::::::::::::::::::::::::::::::::::
         ::                     SUMMARY                     ::
         :::::::::::::::::::::::::::::::::::::::::::::::::::::
         :: total energy             -42.140107589133 Eh    ::
         :: gradient norm              0.032409071229 Eh/a0 ::
         :: HOMO-LUMO gap             12.194443867420 eV    ::
         ::.................................................::
         :: SCC energy               -42.752971336285 Eh    ::
         :: -> isotropic ES            0.006680195752 Eh    ::
         :: -> anisotropic ES          0.014006735338 Eh    ::
         :: -> anisotropic XC          0.025103794270 Eh    ::
         :: -> dispersion             -0.026611607659 Eh    ::
         :: repulsion energy           0.613030903715 Eh    ::
         :: add. restraining           0.000000000000 Eh    ::
         :: total charge               0.000000000000 e     ::
         :::::::::::::::::::::::::::::::::::::::::::::::::::::

      ----------------------------------------------------------- 
     |                   =====================                   |
     |                        A N C O P T                        |
     |                   =====================                   |
     |               Approximate Normal Coordinate               |
     |                Rational Function Optimizer                |
      ----------------------------------------------------------- 

          ...................................................
          :                      SETUP                      :
          :.................................................:
          :   optimization level            normal          :
          :   max. optcycles                   200          :
          :   ANC micro-cycles                  20          :
          :   degrees of freedom               117          :
          :.................................................:
          :   RF solver                   davidson          :
          :   write xtbopt.log                true          :
          :   linear?                        false          :
          :   energy convergence         0.5000000E-05 Eh   :
          :   grad. convergence          0.1000000E-02 Eh/α :
          :   maxmium RF displ.          2.0000000          :
          :   Hlow (freq-cutoff)         0.2000000E-01      :
          :   Hmax (freq-cutoff)         5.0000000          :
          :   S6 in model hess.         70.0000000          :
          ...................................................

generating ANC from model Hessian ...
Using Lindh-Hessian (1995)
 Shifting diagonal of input Hessian by   1.967385047655169E-002
 Lowest  eigenvalues of input Hessian
    0.000000    0.000000    0.000000    0.000000    0.000000    0.000000
    0.020000    0.020166    0.020973    0.022168    0.023247    0.023655
    0.023965    0.024267    0.025155    0.025897    0.026630    0.027074
 Highest eigenvalues
    1.234097    1.246846    1.258525    1.296888    1.318056    1.332831
 

........................................................................
.............................. CYCLE    1 ..............................
........................................................................

 iter      E             dE          RMSdq      gap      omega  full diag
   1    -42.7529713 -0.427530E+02  0.261E-05   12.19       0.0  T
   2    -42.7529713 -0.329692E-11  0.144E-05   12.19    1084.8  T
   3    -42.7529713 -0.184741E-12  0.582E-06   12.19    2684.8  T
     SCC iter.                  ...        0 min,  0.006 sec
     gradient                   ...        0 min,  0.005 sec
 * total energy  :   -42.1401076 Eh     change       -0.1460165E-10 Eh
   gradient norm :     0.0324088 Eh/α   predicted     0.0000000E+00 (-100.00%)
   displ. norm   :     0.1911810 α      lambda       -0.3557651E-02
   maximum displ.:     0.1029049 α      in ANC's #51, #52, #13, ...

........................................................................
.............................. CYCLE    2 ..............................
........................................................................

 iter      E             dE          RMSdq      gap      omega  full diag
   1    -42.7638358 -0.427638E+02  0.130E-01   12.32       0.0  T
   2    -42.7638405 -0.476174E-05  0.749E-02   12.32       1.0  T
   3    -42.7638414 -0.905648E-06  0.350E-03   12.32       4.5  T
   4    -42.7638415 -0.671195E-07  0.127E-03   12.32      12.3  T
   5    -42.7638415 -0.296351E-08  0.666E-04   12.32      23.5  T
   6    -42.7638415 -0.496136E-09  0.414E-05   12.32     377.2  T
     SCC iter.                  ...        0 min,  0.008 sec
     gradient                   ...        0 min,  0.005 sec
 * total energy  :   -42.1424696 Eh     change       -0.2362007E-02 Eh
   gradient norm :     0.0144205 Eh/α   predicted    -0.1843856E-02 ( -21.94%)
   displ. norm   :     0.1117509 α      lambda       -0.7065114E-03
   maximum displ.:     0.0527437 α      in ANC's #13, #51, #18, ...

........................................................................
.............................. CYCLE    3 ..............................
........................................................................

 iter      E             dE          RMSdq      gap      omega  full diag
   1    -42.7718842 -0.427719E+02  0.653E-02   12.39       0.0  T
   2    -42.7718875 -0.322395E-05  0.370E-02   12.39       1.0  T
   3    -42.7718876 -0.170358E-06  0.372E-03   12.39       4.2  T
   4    -42.7718877 -0.364368E-07  0.673E-04   12.39      23.2  T
   5    -42.7718877 -0.247911E-08  0.378E-04   12.39      41.3  T
     SCC iter.                  ...        0 min,  0.007 sec
     gradient                   ...        0 min,  0.005 sec
 * total energy  :   -42.1428556 Eh     change       -0.3860449E-03 Eh
   gradient norm :     0.0023037 Eh/α   predicted    -0.3577136E-03 (  -7.34%)
   displ. norm   :     0.0337263 α      lambda       -0.3139206E-04
   maximum displ.:     0.0228637 α      in ANC's #13, #9, #11, ...

........................................................................
.............................. CYCLE    4 ..............................
........................................................................

 iter      E             dE          RMSdq      gap      omega  full diag
   1    -42.7733753 -0.427734E+02  0.102E-02   12.42       0.0  T
   2    -42.7733754 -0.115084E-06  0.573E-03   12.42       2.7  T
   3    -42.7733754 -0.347891E-08  0.783E-04   12.42      20.0  T
   4    -42.7733754 -0.123604E-08  0.146E-04   12.42     107.3  T
     SCC iter.                  ...        0 min,  0.006 sec
     gradient                   ...        0 min,  0.005 sec
 * total energy  :   -42.1428806 Eh     change       -0.2497785E-04 Eh
   gradient norm :     0.0009371 Eh/α   predicted    -0.1691370E-04 ( -32.29%)
   displ. norm   :     0.0736471 α      lambda       -0.2789005E-04
   maximum displ.:     0.0505137 α      in ANC's #13, #9, #11, ...

........................................................................
.............................. CYCLE    5 ..............................
........................................................................

 iter      E             dE          RMSdq      gap      omega  full diag
   1    -42.7748101 -0.427748E+02  0.170E-02   12.46       0.0  T
   2    -42.7748102 -0.936478E-07  0.981E-03   12.46       1.6  T
   3    -42.7748102 -0.142142E-07  0.594E-04   12.46      26.3  T
   4    -42.7748102 -0.172073E-08  0.248E-04   12.46      63.0  T
     SCC iter.                  ...        0 min,  0.006 sec
     gradient                   ...        0 min,  0.005 sec
 * total energy  :   -42.1429002 Eh     change       -0.1956710E-04 Eh
   gradient norm :     0.0021421 Eh/α   predicted    -0.1398314E-04 ( -28.54%)
   displ. norm   :     0.0137398 α      lambda       -0.7084238E-05
   maximum displ.:     0.0076175 α      in ANC's #3, #13, #18, ...

........................................................................
.............................. CYCLE    6 ..............................
........................................................................

 iter      E             dE          RMSdq      gap      omega  full diag
   1    -42.7744073 -0.427744E+02  0.245E-03   12.46       0.0  T
   2    -42.7744073 -0.184075E-07  0.141E-03   12.46      11.1  T
   3    -42.7744073 -0.283833E-09  0.343E-04   12.46      45.5  T
   4    -42.7744073 -0.120977E-09  0.443E-05   12.46     352.9  T
     SCC iter.                  ...        0 min,  0.006 sec
     gradient                   ...        0 min,  0.006 sec
 * total energy  :   -42.1429063 Eh     change       -0.6143143E-05 Eh
   gradient norm :     0.0011821 Eh/α   predicted    -0.3550632E-05 ( -42.20%)
   displ. norm   :     0.0866444 α      lambda       -0.1897409E-04
   maximum displ.:     0.0513959 α      in ANC's #3, #13, #18, ...

........................................................................
.............................. CYCLE    7 ..............................
........................................................................

 iter      E             dE          RMSdq      gap      omega  full diag
   1    -42.7730752 -0.427731E+02  0.124E-02   12.47       0.0  T
   2    -42.7730755 -0.232941E-06  0.732E-03   12.47       2.1  T
   3    -42.7730755 -0.596047E-08  0.106E-03   12.47      14.8  T
   4    -42.7730755 -0.280759E-08  0.205E-04   12.47      76.0  T
   5    -42.7730755 -0.268955E-09  0.105E-04   12.47     149.1  T
     SCC iter.                  ...        0 min,  0.027 sec
     gradient                   ...        0 min,  0.022 sec
 * total energy  :   -42.1429177 Eh     change       -0.1134137E-04 Eh
   gradient norm :     0.0024762 Eh/α   predicted    -0.9530421E-05 ( -15.97%)
   displ. norm   :     0.0085317 α      lambda       -0.4434233E-05
   maximum displ.:     0.0067800 α      in ANC's #3, #8, #7, ...

........................................................................
.............................. CYCLE    8 ..............................
........................................................................

 iter      E             dE          RMSdq      gap      omega  full diag
   1    -42.7734277 -0.427734E+02  0.164E-03   12.47       0.0  T
   2    -42.7734277 -0.145305E-07  0.920E-04   12.47      17.0  T
   3    -42.7734277 -0.129894E-09  0.313E-04   12.47      49.9  T
     SCC iter.                  ...        0 min,  0.007 sec
     gradient                   ...        0 min,  0.019 sec
 * total energy  :   -42.1429215 Eh     change       -0.3866446E-05 Eh
   gradient norm :     0.0016223 Eh/α   predicted    -0.2217634E-05 ( -42.64%)
   displ. norm   :     0.0779514 α      lambda       -0.1296090E-04
   maximum displ.:     0.0617151 α      in ANC's #3, #7, #8, ...

........................................................................
.............................. CYCLE    9 ..............................
........................................................................

 iter      E             dE          RMSdq      gap      omega  full diag
   1    -42.7746591 -0.427747E+02  0.969E-03   12.46       0.0  T
   2    -42.7746593 -0.235671E-06  0.567E-03   12.46       2.8  T
   3    -42.7746593 -0.243386E-08  0.117E-03   12.46      13.4  T
   4    -42.7746593 -0.217391E-08  0.147E-04   12.46     106.0  T
   5    -42.7746593 -0.251966E-09  0.716E-05   12.46     218.1  T
     SCC iter.                  ...        0 min,  0.019 sec
     gradient                   ...        0 min,  0.012 sec
 * total energy  :   -42.1429296 Eh     change       -0.8086702E-05 Eh
   gradient norm :     0.0019131 Eh/α   predicted    -0.6510589E-05 ( -19.49%)
   displ. norm   :     0.0236695 α      lambda       -0.3059115E-05
   maximum displ.:     0.0188151 α      in ANC's #3, #7, #8, ...

........................................................................
.............................. CYCLE   10 ..............................
........................................................................

 iter      E             dE          RMSdq      gap      omega  full diag
   1    -42.7742257 -0.427742E+02  0.279E-03   12.46       0.0  T
   2    -42.7742257 -0.169801E-07  0.161E-03   12.46       9.7  T
   3    -42.7742257 -0.221959E-09  0.315E-04   12.46      49.6  T
   4    -42.7742257 -0.118646E-09  0.402E-05   12.46     389.0  T
     SCC iter.                  ...        0 min,  0.018 sec
     gradient                   ...        0 min,  0.015 sec
 * total energy  :   -42.1429334 Eh     change       -0.3803981E-05 Eh
   gradient norm :     0.0010155 Eh/α   predicted    -0.1530194E-05 ( -59.77%)
   displ. norm   :     0.0556275 α      lambda       -0.5074544E-05
   maximum displ.:     0.0447121 α      in ANC's #3, #8, #1, ...

........................................................................
.............................. CYCLE   11 ..............................
........................................................................

 iter      E             dE          RMSdq      gap      omega  full diag
   1    -42.7735935 -0.427736E+02  0.553E-03   12.46       0.0  T
   2    -42.7735935 -0.370354E-07  0.323E-03   12.46       4.8  T
   3    -42.7735935 -0.846697E-09  0.410E-04   12.46      38.1  T
   4    -42.7735935 -0.306116E-09  0.712E-05   12.46     219.4  T
     SCC iter.                  ...        0 min,  0.010 sec
     gradient                   ...        0 min,  0.015 sec
 * total energy  :   -42.1429387 Eh     change       -0.5222810E-05 Eh
   gradient norm :     0.0003392 Eh/α   predicted    -0.2545001E-05 ( -51.27%)
   displ. norm   :     0.0400550 α      lambda       -0.1832961E-05
   maximum displ.:     0.0314995 α      in ANC's #3, #1, #8, ...

........................................................................
.............................. CYCLE   12 ..............................
........................................................................

 iter      E             dE          RMSdq      gap      omega  full diag
   1    -42.7734780 -0.427735E+02  0.394E-03   12.45       0.0  T
   2    -42.7734780 -0.212810E-08  0.234E-03   12.45       6.7  T
   3    -42.7734780 -0.460645E-09  0.933E-05   12.45     167.3  T
   4    -42.7734780 -0.574971E-10  0.460E-05   12.45     339.3  T
     SCC iter.                  ...        0 min,  0.020 sec
     gradient                   ...        0 min,  0.017 sec
 * total energy  :   -42.1429407 Eh     change       -0.2071115E-05 Eh
   gradient norm :     0.0004744 Eh/α   predicted    -0.9183408E-06 ( -55.66%)
   displ. norm   :     0.0392712 α      lambda       -0.1278583E-05
   maximum displ.:     0.0299326 α      in ANC's #3, #1, #7, ...

   *** GEOMETRY OPTIMIZATION CONVERGED AFTER 12 ITERATIONS ***

------------------------------------------------------------------------
 total energy gain   :        -0.0028331 Eh       -1.7778 kcal/mol
 total RMSD          :         0.0788028 a0        0.0417 Å
 total power (kW/mol):        -0.6198656 (step)  -16.6241 (real)
------------------------------------------------------------------------

 ANCopt (total)                0 d,  0 h,  0 min,  0.447 sec
 optimizer setup                ...        0 min,  0.001 sec (  0.129%)
 model hessian                  ...        0 min,  0.017 sec (  3.861%)
 ANC generation                 ...        0 min,  0.002 sec (  0.503%)
 coordinate transformation      ...        0 min,  0.000 sec (  0.105%)
 single point calculation       ...        0 min,  0.312 sec ( 69.684%)
 optimization log               ...        0 min,  0.097 sec ( 21.621%)
 hessian update                 ...        0 min,  0.015 sec (  3.363%)
 rational function              ...        0 min,  0.002 sec (  0.363%)

================
 final structure:
================
41
 xtb: 6.6.1 (8d0f1dd)
C            7.03810321054846       -0.60563234515973        0.12817191984753
C            5.59299581023725       -0.78174132593770       -0.32116981255232
C            4.70076609872345        0.35539157409216        0.17066918998179
C            3.24994522045330        0.18037216792328       -0.27155747007149
C            2.36135616186790        1.31773478335852        0.22751049928652
C            0.92294036512018        1.23327201687503       -0.28412953871774
C            0.13419081165951        0.06734374613783        0.30804417768952
C           -1.31272797457958        0.05650558750423       -0.18014832053349
C           -2.10822977576019       -1.10000966365858        0.42180764139441
C           -3.51584715661437       -1.23596198088623       -0.15945689557662
C           -4.44045208826652       -0.07818491113465        0.20955857752101
C           -5.85918107405215       -0.29369277501965       -0.31227321612364
C           -6.77719554201804        0.86887207160619        0.04448410479931
H            7.65521397580341       -1.42538751030613       -0.23263761178556
H            7.09943973889732       -0.58216442377054        1.21417012790969
H            7.44638931364850        0.32646942783309       -0.25678840715604
H            5.55479077425373       -0.82319763935502       -1.41236221178306
H            5.20846214750606       -1.73138244193189        0.05860024932847
H            5.08414500912337        1.30468753216116       -0.21187567218448
H            4.74222769785418        0.39944240549410        1.26185210108363
H            2.87768020764774       -0.77319354869756        0.10704508698275
H            3.20806995696655        0.14397344333676       -1.36306850224698
H            2.79351535592695        2.26672753363941       -0.10082640239961
H            2.35590581739379        1.32007777378473        1.32018845515201
H            0.93340734153487        1.14570415071660       -1.37334625424488
H            0.40781365333280        2.16469837607201       -0.03466624952682
H            0.14681723733065        0.14089488466610        1.39834784991482
H            0.60801418976369       -0.87663082849482        0.03311947874274
H           -1.78339251241666        1.00533312919939        0.08344824116770
H           -1.32298446610187       -0.02887164412579       -1.26964930767691
H           -2.17552509875336       -0.96801225521113        1.50441484352048
H           -1.56469511679209       -2.03053842006454        0.23760843516746
H           -3.44933477708829       -1.31174770316496       -1.24762337719106
H           -3.95740135918222       -2.16627737245377        0.20777180243366
H           -4.04991086321158        0.85255386569004       -0.20556480800460
H           -4.46897150801874        0.02761744563823        1.29690645363751
H           -6.26332468792566       -1.21759247818860        0.10855037741380
H           -5.82874121034062       -0.41177249546809       -1.39812116794100
H           -6.83673325261744        0.99033236786939        1.12405001336215
H           -6.40162895883361        1.79626470253574       -0.38302573421593
H           -7.78109067302064        0.69726177689540       -0.33726366640483
           -------------------------------------------------
          |                Final Singlepoint                |
           -------------------------------------------------

          ...................................................
          :                      SETUP                      :
          :.................................................:
          :  # basis functions                  80          :
          :  # atomic orbitals                  80          :
          :  # shells                           54          :
          :  # electrons                        80          :
          :  max. iterations                   250          :
          :  Hamiltonian                  GFN2-xTB          :
          :  restarted?                      false          :
          :  GBSA solvation                  false          :
          :  PC potential                    false          :
          :  electronic temp.          300.0000000     K    :
          :  accuracy                    1.0000000          :
          :  -> integral cutoff          0.2500000E+02      :
          :  -> integral neglect         0.1000000E-07      :
          :  -> SCF convergence          0.1000000E-05 Eh   :
          :  -> wf. convergence          0.1000000E-03 e    :
          :  Broyden damping             0.4000000          :
          ...................................................

 iter      E             dE          RMSdq      gap      omega  full diag
   1    -42.7734780 -0.427735E+02  0.157E-05   12.45       0.0  T
   2    -42.7734780 -0.596856E-12  0.905E-06   12.45    1725.2  T
   3    -42.7734780 -0.142109E-13  0.260E-06   12.45    6000.5  T

   *** convergence criteria satisfied after 3 iterations ***

         #    Occupation            Energy/Eh            Energy/eV
      -------------------------------------------------------------
         1        2.0000           -0.6230892             -16.9551
       ...           ...                  ...                  ...
        34        2.0000           -0.4258232             -11.5872
        35        2.0000           -0.4216614             -11.4740
        36        2.0000           -0.4187797             -11.3956
        37        2.0000           -0.4181110             -11.3774
        38        2.0000           -0.4155191             -11.3068
        39        2.0000           -0.4124374             -11.2230
        40        2.0000           -0.4091549             -11.1337 (HOMO)
        41                          0.0484925               1.3195 (LUMO)
        42                          0.0634875               1.7276
        43                          0.0755858               2.0568
        44                          0.1085869               2.9548
        45                          0.1139004               3.0994
       ...                                ...                  ...
        80                          0.3264275               8.8825
      -------------------------------------------------------------
                  HL-Gap            0.4576475 Eh           12.4532 eV
             Fermi-level           -0.1803312 Eh           -4.9071 eV

 SCC (total)                   0 d,  0 h,  0 min,  0.047 sec
 SCC setup                      ...        0 min,  0.000 sec (  0.495%)
 Dispersion                     ...        0 min,  0.001 sec (  2.750%)
 classical contributions        ...        0 min,  0.001 sec (  1.753%)
 integral evaluation            ...        0 min,  0.005 sec ( 11.557%)
 iterations                     ...        0 min,  0.023 sec ( 49.488%)
 molecular gradient             ...        0 min,  0.016 sec ( 33.229%)
 printout                       ...        0 min,  0.000 sec (  0.653%)

         :::::::::::::::::::::::::::::::::::::::::::::::::::::
         ::                     SUMMARY                     ::
         :::::::::::::::::::::::::::::::::::::::::::::::::::::
         :: total energy             -42.142940721355 Eh    ::
         :: gradient norm              0.000474436448 Eh/a0 ::
         :: HOMO-LUMO gap             12.453221662255 eV    ::
         ::.................................................::
         :: SCC energy               -42.773478047339 Eh    ::
         :: -> isotropic ES            0.007138157579 Eh    ::
         :: -> anisotropic ES          0.013425935328 Eh    ::
         :: -> anisotropic XC          0.025505085199 Eh    ::
         :: -> dispersion             -0.026682956853 Eh    ::
         :: repulsion energy           0.630713940736 Eh    ::
         :: add. restraining           0.000000000000 Eh    ::
         :: total charge              -0.000000000000 e     ::
         :::::::::::::::::::::::::::::::::::::::::::::::::::::

           ------------------------------------------------- 
          |                Numerical Hessian                |
           ------------------------------------------------- 
step length          :   0.00500
SCC accuracy         :   0.30000
Hessian scale factor :   1.00000
frozen atoms in %    :   0.00000    0
RMS gradient         :   0.00047
estimated CPU  time      0.41 min
estimated wall time      0.12 min

writing file <hessian>.

 projected vibrational frequencies (cm⁻¹)
eigval :       -0.00    -0.00     0.00     0.00     0.00     0.00
eigval :       13.52    28.86    39.01    55.83    60.64    85.71
eigval :       97.06   104.27   112.13   120.58   144.95   176.26
eigval :      205.08   225.37   234.32   237.43   300.79   335.13
eigval :      356.65   403.92   422.70   492.31   531.86   766.01
eigval :      768.71   775.49   788.93   804.27   827.06   865.30
eigval :      894.82   931.28   940.35   942.48   958.17   990.44
eigval :      995.01  1018.88  1035.78  1076.26  1080.74  1089.87
eigval :     1097.06  1108.78  1112.79  1122.75  1127.09  1135.40
eigval :     1143.43  1176.43  1182.19  1215.93  1224.10  1248.72
eigval :     1253.94  1262.72  1270.14  1277.47  1283.35  1284.88
eigval :     1287.32  1291.15  1294.38  1301.22  1324.09  1329.55
eigval :     1350.22  1367.61  1370.76  1377.96  1379.12  1381.14
eigval :     1416.51  1416.55  1490.51  1490.86  1493.06  1493.48
eigval :     1496.66  1496.72  1498.73  1500.35  1500.82  1502.38
eigval :     1504.20  1505.04  1505.32  1508.09  1508.15  2953.23
eigval :     2953.81  2954.62  2954.88  2955.57  2959.25  2961.99
eigval :     2963.92  2968.93  2970.63  2972.05  2972.46  2973.66
eigval :     2976.32  2977.68  2979.32  2979.80  2983.11  2983.37
eigval :     2988.58  2991.54  2996.37  3029.06  3029.69  3031.45
eigval :     3031.65  3037.23  3037.40
           -------------------------------------------------
          |                Property Printout                |
           -------------------------------------------------

    * Orbital Energies and Occupations

         #    Occupation            Energy/Eh            Energy/eV
      -------------------------------------------------------------
         1        2.0000           -0.6230892             -16.9551
       ...           ...                  ...                  ...
        28        2.0000           -0.4506633             -12.2632
        29        2.0000           -0.4402672             -11.9803
        30        2.0000           -0.4372517             -11.8982
        31        2.0000           -0.4367495             -11.8846
        32        2.0000           -0.4307130             -11.7203
        33        2.0000           -0.4275278             -11.6336
        34        2.0000           -0.4258232             -11.5872
        35        2.0000           -0.4216614             -11.4740
        36        2.0000           -0.4187797             -11.3956
        37        2.0000           -0.4181110             -11.3774
        38        2.0000           -0.4155191             -11.3068
        39        2.0000           -0.4124374             -11.2230
        40        2.0000           -0.4091549             -11.1337 (HOMO)
        41                          0.0484925               1.3195 (LUMO)
        42                          0.0634875               1.7276
        43                          0.0755858               2.0568
        44                          0.1085869               2.9548
        45                          0.1139004               3.0994
        46                          0.1151589               3.1336
        47                          0.1205366               3.2800
        48                          0.1224284               3.3314
        49                          0.1275689               3.4713
        50                          0.1371662               3.7325
        51                          0.1456040               3.9621
       ...                                ...                  ...
        80                          0.3264275               8.8825
      -------------------------------------------------------------
                  HL-Gap            0.4576475 Eh           12.4532 eV
             Fermi-level           -0.1803312 Eh           -4.9071 eV

     #   Z          covCN         q      C6AA      α(0)
     1   6 C        3.752    -0.102    22.508     6.766
     2   6 C        3.801    -0.053    21.520     6.605
     3   6 C        3.803    -0.059    21.635     6.622
     4   6 C        3.802    -0.059    21.628     6.621
     5   6 C        3.802    -0.058    21.616     6.619
     6   6 C        3.802    -0.058    21.615     6.619
     7   6 C        3.802    -0.059    21.630     6.621
     8   6 C        3.802    -0.059    21.629     6.621
     9   6 C        3.802    -0.058    21.612     6.619
    10   6 C        3.802    -0.058    21.619     6.620
    11   6 C        3.803    -0.059    21.642     6.623
    12   6 C        3.801    -0.053    21.524     6.605
    13   6 C        3.752    -0.102    22.505     6.765
    14   1 H        0.925     0.032     2.553     2.498
    15   1 H        0.925     0.033     2.543     2.494
    16   1 H        0.925     0.033     2.544     2.494
    17   1 H        0.924     0.028     2.610     2.527
    18   1 H        0.924     0.028     2.612     2.527
    19   1 H        0.924     0.029     2.604     2.524
    20   1 H        0.924     0.029     2.598     2.521
    21   1 H        0.924     0.030     2.580     2.512
    22   1 H        0.924     0.029     2.602     2.523
    23   1 H        0.924     0.028     2.610     2.526
    24   1 H        0.924     0.029     2.594     2.519
    25   1 H        0.924     0.030     2.593     2.518
    26   1 H        0.924     0.028     2.613     2.528
    27   1 H        0.924     0.029     2.604     2.524
    28   1 H        0.924     0.030     2.581     2.512
    29   1 H        0.924     0.030     2.583     2.513
    30   1 H        0.924     0.029     2.600     2.522
    31   1 H        0.924     0.029     2.597     2.520
    32   1 H        0.924     0.028     2.612     2.528
    33   1 H        0.924     0.029     2.602     2.523
    34   1 H        0.924     0.028     2.619     2.531
    35   1 H        0.924     0.032     2.558     2.501
    36   1 H        0.924     0.030     2.587     2.515
    37   1 H        0.924     0.028     2.622     2.532
    38   1 H        0.924     0.028     2.617     2.530
    39   1 H        0.925     0.033     2.544     2.494
    40   1 H        0.925     0.033     2.545     2.495
    41   1 H        0.925     0.032     2.556     2.500

 Mol. C6AA /au·bohr⁶  :      11131.407430
 Mol. C8AA /au·bohr⁸  :     232289.510214
 Mol. α(0) /au        :        156.777798


Wiberg/Mayer (AO) data.
largest (>0.10) Wiberg bond orders for each atom

 ---------------------------------------------------------------------------
     #   Z sym  total        # sym  WBO       # sym  WBO       # sym  WBO
 ---------------------------------------------------------------------------
     1   6 C    3.997 --     2 C    1.019    16 H    0.988    15 H    0.988
                            14 H    0.988
     2   6 C    3.998 --     1 C    1.019     3 C    1.008    17 H    0.979
                            18 H    0.979
     3   6 C    3.997 --     2 C    1.008     4 C    1.007    20 H    0.978
                            19 H    0.977
     4   6 C    3.998 --     5 C    1.008     3 C    1.007    22 H    0.977
                            21 H    0.976
     5   6 C    3.997 --     4 C    1.008     6 C    1.006    24 H    0.977
                            23 H    0.977
     6   6 C    3.997 --     7 C    1.008     5 C    1.006    26 H    0.977
                            25 H    0.977
     7   6 C    3.997 --     6 C    1.008     8 C    1.007    27 H    0.977
                            28 H    0.975
     8   6 C    3.997 --     9 C    1.008     7 C    1.007    30 H    0.977
                            29 H    0.976
     9   6 C    3.997 --     8 C    1.008    10 C    1.006    31 H    0.978
                            32 H    0.977
    10   6 C    3.997 --    11 C    1.008     9 C    1.006    33 H    0.977
                            34 H    0.977
    11   6 C    3.997 --    10 C    1.008    12 C    1.008    36 H    0.977
                            35 H    0.976
    12   6 C    3.998 --    13 C    1.019    11 C    1.008    38 H    0.979
                            37 H    0.979
    13   6 C    3.997 --    12 C    1.019    39 H    0.988    40 H    0.988
                            41 H    0.988
    14   1 H    0.999 --     1 C    0.988
    15   1 H    0.999 --     1 C    0.988
    16   1 H    0.999 --     1 C    0.988
    17   1 H    0.999 --     2 C    0.979
    18   1 H    0.999 --     2 C    0.979
    19   1 H    0.999 --     3 C    0.977
    20   1 H    0.999 --     3 C    0.978
    21   1 H    0.999 --     4 C    0.976
    22   1 H    0.999 --     4 C    0.977
    23   1 H    0.999 --     5 C    0.977
    24   1 H    0.999 --     5 C    0.977
    25   1 H    0.999 --     6 C    0.977
    26   1 H    0.999 --     6 C    0.977
    27   1 H    0.999 --     7 C    0.977
    28   1 H    0.999 --     7 C    0.975
    29   1 H    0.999 --     8 C    0.976
    30   1 H    0.999 --     8 C    0.977
    31   1 H    0.999 --     9 C    0.978
    32   1 H    0.999 --     9 C    0.977
    33   1 H    0.999 --    10 C    0.977
    34   1 H    0.999 --    10 C    0.977
    35   1 H    0.999 --    11 C    0.976
    36   1 H    0.999 --    11 C    0.977
    37   1 H    0.999 --    12 C    0.979
    38   1 H    0.999 --    12 C    0.979
    39   1 H    0.999 --    13 C    0.988
    40   1 H    0.999 --    13 C    0.988
    41   1 H    0.999 --    13 C    0.988
 ---------------------------------------------------------------------------

Topologies differ in total number of bonds
Writing topology from bond orders to xtbtopo.mol

molecular dipole:
                 x           y           z       tot (Debye)
 q only:        0.004       0.010       0.004
   full:        0.004       0.008       0.004       0.026
molecular quadrupole (traceless):
                xx          xy          yy          xz          yz          zz
 q only:        0.414      -0.253      -0.014       0.129       0.079      -0.400
  q+dip:       -2.970       0.343       0.424      -0.737      -0.427       2.546
   full:       -1.268       0.079       0.172      -0.318      -0.197       1.096

           -------------------------------------------------
          |                Geometry Summary                 |
           -------------------------------------------------

      molecular mass/u    :      184.3619077
   center of mass at/Å    :        0.0004332       0.0002614      -0.0004979
  moments of inertia/u·Å² :        0.1717102E+03   0.3503719E+04   0.3608247E+04
rotational constants/cm⁻¹ :        0.9817490E-01   0.4811353E-02   0.4671973E-02

 * 40 selected distances

     #   Z          #   Z                                           value/Å
     1   6 C        2   6 C                                       1.5235676
     2   6 C        3   6 C                                       1.5267780
     3   6 C        4   6 C                                       1.5267868
     4   6 C        5   6 C                                       1.5271717
     5   6 C        6   6 C                                       1.5290356 (max)
     6   6 C        7   6 C                                       1.5271492
     7   6 C        8   6 C                                       1.5270965
     8   6 C        9   6 C                                       1.5273186
     9   6 C       10   6 C                                       1.5289665
    10   6 C       11   6 C                                       1.5269299
    11   6 C       12   6 C                                       1.5269396
    12   6 C       13   6 C                                       1.5236744
     1   6 C       14   1 H                                       1.0876617
     1   6 C       15   1 H                                       1.0879822
     1   6 C       16   1 H                                       1.0879825
     2   6 C       17   1 H                                       1.0926479
     2   6 C       18   1 H                                       1.0926618
     3   6 C       19   1 H                                       1.0929241
     3   6 C       20   1 H                                       1.0928586
     4   6 C       21   1 H                                       1.0914252
     4   6 C       22   1 H                                       1.0929204
     5   6 C       23   1 H                                       1.0932311
     5   6 C       24   1 H                                       1.0926942
     6   6 C       25   1 H                                       1.0927813
     6   6 C       26   1 H                                       1.0932258
     7   6 C       27   1 H                                       1.0928548
     7   6 C       28   1 H                                       1.0914121
     8   6 C       29   1 H                                       1.0914587
     8   6 C       30   1 H                                       1.0928893
     9   6 C       31   1 H                                       1.0926987
     9   6 C       32   1 H                                       1.0932718
    10   6 C       33   1 H                                       1.0928284
    10   6 C       34   1 H                                       1.0933042
    11   6 C       35   1 H                                       1.0913866
    11   6 C       36   1 H                                       1.0928555
    12   6 C       37   1 H                                       1.0927101
    12   6 C       38   1 H                                       1.0926735
    13   6 C       39   1 H                                       1.0880074
    13   6 C       40   1 H                                       1.0880589
    13   6 C       41   1 H                                       1.0876521 (min)

 * 2 distinct bonds (by element types)

   Z      Z             #   av. dist./Å        max./Å        min./Å
   1 H    6 C          28     1.0916092     1.0933042     1.0876521
   6 C    6 C          12     1.5267845     1.5290356     1.5235676

           -------------------------------------------------
          |               Frequency Printout                |
           -------------------------------------------------
 projected vibrational frequencies (cm⁻¹)
eigval :       -0.00    -0.00     0.00     0.00     0.00     0.00
eigval :       13.52    28.86    39.01    55.83    60.64    85.71
eigval :       97.06   104.27   112.13   120.58   144.95   176.26
eigval :      205.08   225.37   234.32   237.43   300.79   335.13
eigval :      356.65   403.92   422.70   492.31   531.86   766.01
eigval :      768.71   775.49   788.93   804.27   827.06   865.30
eigval :      894.82   931.28   940.35   942.48   958.17   990.44
eigval :      995.01  1018.88  1035.78  1076.26  1080.74  1089.87
eigval :     1097.06  1108.78  1112.79  1122.75  1127.09  1135.40
eigval :     1143.43  1176.43  1182.19  1215.93  1224.10  1248.72
eigval :     1253.94  1262.72  1270.14  1277.47  1283.35  1284.88
eigval :     1287.32  1291.15  1294.38  1301.22  1324.09  1329.55
eigval :     1350.22  1367.61  1370.76  1377.96  1379.12  1381.14
eigval :     1416.51  1416.55  1490.51  1490.86  1493.06  1493.48
eigval :     1496.66  1496.72  1498.73  1500.35  1500.82  1502.38
eigval :     1504.20  1505.04  1505.32  1508.09  1508.15  2953.23
eigval :     2953.81  2954.62  2954.88  2955.57  2959.25  2961.99
eigval :     2963.92  2968.93  2970.63  2972.05  2972.46  2973.66
eigval :     2976.32  2977.68  2979.32  2979.80  2983.11  2983.37
eigval :     2988.58  2991.54  2996.37  3029.06  3029.69  3031.45
eigval :     3031.65  3037.23  3037.40
 reduced masses (amu)
   1:  9.70   2: 10.20   3: 10.30   4: 10.05   5:  8.99   6:  9.59   7:  9.56   8:  9.58
   9:  5.94  10:  6.75  11:  8.05  12:  6.70  13:  8.41  14:  7.64  15:  7.74  16:  6.89
  17:  8.76  18:  8.57  19:  6.98  20:  5.96  21:  2.27  22:  4.09  23:  8.69  24:  8.98
  25:  9.04  26:  8.48  27:  9.29  28:  9.01  29:  8.39  30:  1.96  31:  1.95  32:  1.88
  33:  2.52  34:  2.76  35:  2.87  36:  3.31  37:  4.63  38:  4.90  39:  5.70  40:  5.55
  41:  4.82  42:  7.20  43:  5.77  44:  3.85  45:  4.69  46:  8.82  47:  8.69  48:  8.39
  49:  7.80  50:  7.87  51:  7.77  52:  7.26  53:  7.61  54:  7.78  55:  8.42  56:  7.20
  57:  6.00  58:  5.30  59:  4.74  60:  3.95  61:  3.65  62:  3.62  63:  3.17  64:  2.54
  65:  2.35  66:  2.44  67:  2.25  68:  2.15  69:  2.28  70:  2.27  71:  3.69  72:  3.68
  73:  4.33  74:  4.64  75:  4.78  76:  5.46  77:  5.58  78:  5.53  79:  3.19  80:  3.18
  81:  1.91  82:  1.92  83:  1.92  84:  1.92  85:  1.96  86:  1.95  87:  1.91  88:  1.98
  89:  1.88  90:  1.87  91:  1.79  92:  1.53  93:  1.54  94:  1.66  95:  1.66  96:  1.88
  97:  1.89  98:  1.90  99:  1.92 100:  1.93 101:  1.93 102:  1.88 103:  1.90 104:  1.64
 105:  1.76 106:  1.77 107:  1.53 108:  1.52 109:  1.50 110:  1.53 111:  1.57 112:  1.69
 113:  1.58 114:  1.92 115:  1.55 116:  1.60 117:  1.65 118:  1.96 119:  1.96 120:  1.92
 121:  1.93 122:  1.27 123:  1.26
 IR intensities (km·mol⁻¹)
   1:  0.00   2:  0.00   3:  0.00   4:  0.00   5:  0.00   6:  0.00   7:  0.00   8:  0.01
   9:  0.00  10:  0.00  11:  0.00  12:  0.00  13:  0.01  14:  0.02  15:  0.00  16:  0.01
  17:  0.21  18:  0.10  19:  0.11  20:  0.00  21:  0.00  22:  0.00  23:  0.02  24:  0.01
  25:  0.07  26:  0.10  27:  0.07  28:  0.03  29:  0.92  30: 19.11  31:  0.51  32: 10.31
  33:  0.44  34:  0.58  35:  0.60  36:  3.32  37:  1.36  38:  1.96  39:  2.83  40:  6.19
  41:  0.69  42:  1.21  43:  0.36  44:  0.24  45:  0.10  46:  0.81  47:  0.68  48:  1.44
  49:  0.68  50:  0.68  51:  0.25  52:  1.38  53:  0.08  54:  1.19  55:  0.95  56:  0.10
  57:  1.02  58:  0.19  59:  0.48  60:  0.49  61:  0.18  62:  0.21  63:  0.21  64:  0.05
  65:  0.11  66:  0.14  67:  0.12  68:  0.12  69:  0.18  70:  0.91  71:  0.05  72:  0.02
  73:  0.07  74:  2.94  75:  1.61  76:  0.49  77:  1.48  78:  0.23  79:  0.60  80:  1.13
  81:  0.81  82:  0.02  83:  0.36  84:  0.04  85:  0.01  86:  0.05  87:  0.33  88:  0.14
  89:  0.11  90:  0.02  91:  0.06  92:  2.46  93:  2.16  94:  1.17  95:  1.16  96:  0.94
  97: 14.14  98:  4.56  99: 19.90 100:  7.47 101:  1.35 102:  0.26 103:  1.21 104: 25.03
 105: 19.19 106: 71.49 107:  8.21 108:  3.72 109:  5.41 110:  4.99 111: 22.14 112:  1.97
 113:  5.93 114:268.73 115:220.40 116:  6.18 117:237.59 118: 57.49 119: 67.84 120: 47.16
 121: 76.28 122: 47.15 123: 18.62
 Raman intensities (amu)
   1:  0.00   2:  0.00   3:  0.00   4:  0.00   5:  0.00   6:  0.00   7:  0.00   8:  0.00
   9:  0.00  10:  0.00  11:  0.00  12:  0.00  13:  0.00  14:  0.00  15:  0.00  16:  0.00
  17:  0.00  18:  0.00  19:  0.00  20:  0.00  21:  0.00  22:  0.00  23:  0.00  24:  0.00
  25:  0.00  26:  0.00  27:  0.00  28:  0.00  29:  0.00  30:  0.00  31:  0.00  32:  0.00
  33:  0.00  34:  0.00  35:  0.00  36:  0.00  37:  0.00  38:  0.00  39:  0.00  40:  0.00
  41:  0.00  42:  0.00  43:  0.00  44:  0.00  45:  0.00  46:  0.00  47:  0.00  48:  0.00
  49:  0.00  50:  0.00  51:  0.00  52:  0.00  53:  0.00  54:  0.00  55:  0.00  56:  0.00
  57:  0.00  58:  0.00  59:  0.00  60:  0.00  61:  0.00  62:  0.00  63:  0.00  64:  0.00
  65:  0.00  66:  0.00  67:  0.00  68:  0.00  69:  0.00  70:  0.00  71:  0.00  72:  0.00
  73:  0.00  74:  0.00  75:  0.00  76:  0.00  77:  0.00  78:  0.00  79:  0.00  80:  0.00
  81:  0.00  82:  0.00  83:  0.00  84:  0.00  85:  0.00  86:  0.00  87:  0.00  88:  0.00
  89:  0.00  90:  0.00  91:  0.00  92:  0.00  93:  0.00  94:  0.00  95:  0.00  96:  0.00
  97:  0.00  98:  0.00  99:  0.00 100:  0.00 101:  0.00 102:  0.00 103:  0.00 104:  0.00
 105:  0.00 106:  0.00 107:  0.00 108:  0.00 109:  0.00 110:  0.00 111:  0.00 112:  0.00
 113:  0.00 114:  0.00 115:  0.00 116:  0.00 117:  0.00 118:  0.00 119:  0.00 120:  0.00
 121:  0.00 122:  0.00 123:  0.00
 output can be read by thermo (or use thermo option).
 writing <g98.out> molden fake output.
 recommended (thermochemical) frequency scaling factor: 1.0
           -------------------------------------------------
          |             Thermodynamic Functions             |
           -------------------------------------------------

Molecule has no symmetry elements
It seems to be the C1 point group
c1  symmetry found (for desy threshold:  0.10E+00) used in thermo

          ...................................................
          :                      SETUP                      :
          :.................................................:
          :  # frequencies                         117      :
          :  # imaginary freq.                       0      :
          :  linear?                             false      :
          :  only rotor calc.                    false      :
          :  symmetry                               c1      :
          :  rotational number                       1      :
          :  scaling factor                  1.0000000      :
          :  rotor cutoff                   50.0000000 cm⁻¹ :
          :  imag. cutoff                  -20.0000000 cm⁻¹ :
          :.................................................:

    mode    ω/cm⁻¹     T·S(HO)/kcal·mol⁻¹    T·S(FR)/kcal·mol⁻¹   T·S(vib)
   ------------------------------------------------------------------------
       1     13.52    -2.20995 (  0.53%)    -1.44389 ( 99.47%)    -1.44796
       2     28.86    -1.76087 ( 10.00%)    -1.21924 ( 90.00%)    -1.27338
       3     39.01    -1.58282 ( 27.03%)    -1.13004 ( 72.97%)    -1.25244
       4     55.83    -1.37133 ( 60.85%)    -1.02385 ( 39.15%)    -1.23529
       5     60.64    -1.32269 ( 68.39%)    -0.99937 ( 31.61%)    -1.22048
       6     85.71    -1.11975 ( 89.62%)    -0.89687 ( 10.38%)    -1.09662
       7     97.06    -1.04725 ( 93.42%)    -0.86003 (  6.58%)    -1.03493
       8    104.27    -1.00560 ( 94.98%)    -0.83879 (  5.02%)    -0.99723
       9    112.13    -0.96352 ( 96.20%)    -0.81727 (  3.80%)    -0.95796
      10    120.58    -0.92160 ( 97.13%)    -0.79576 (  2.87%)    -0.91799
      11    144.95    -0.81618 ( 98.60%)    -0.74123 (  1.40%)    -0.81513
      12    176.26    -0.70591 ( 99.36%)    -0.68329 (  0.64%)    -0.70576
      13    205.08    -0.62226 ( 99.65%)    -0.63844 (  0.35%)    -0.62232
      14    225.37    -0.57112 ( 99.76%)    -0.61049 (  0.24%)    -0.57122
      15    234.32    -0.55026 ( 99.79%)    -0.59895 (  0.21%)    -0.55036
      16    237.43    -0.54325 ( 99.80%)    -0.59504 (  0.20%)    -0.54335
   ------------------------------------------------------------------------

   temp. (K)  partition function   enthalpy   heat capacity  entropy
                                   cal/mol     cal/K/mol   cal/K/mol   J/K/mol
 298.15  VIB  0.104E+09             9397.494     53.117     61.922
         ROT  0.356E+07              888.752      2.981     32.959
         INT  0.369E+15            10286.246     56.098     94.881
         TR   0.242E+28             1481.254      4.968     41.523
         TOT                       11767.5001    61.0662   136.4039   570.7137

       T/K    H(0)-H(T)+PV         H(T)/Eh          T*S/Eh         G(T)/Eh
   ------------------------------------------------------------------------
    298.15    0.187527E-01    0.403332E+00    0.648099E-01    0.338522E+00
   ------------------------------------------------------------------------

         :::::::::::::::::::::::::::::::::::::::::::::::::::::
         ::                  THERMODYNAMIC                  ::
         :::::::::::::::::::::::::::::::::::::::::::::::::::::
         :: total free energy         -41.804418324252 Eh   ::
         ::.................................................::
         :: total energy              -42.142940721355 Eh   ::
         :: zero point energy           0.384579564901 Eh   ::
         :: G(RRHO) w/o ZPVE           -0.046057167798 Eh   ::
         :: G(RRHO) contrib.            0.338522397103 Eh   ::
         :::::::::::::::::::::::::::::::::::::::::::::::::::::
 
 normal mode %tage of torsion character
   1:  0.00   2:  0.00   3:  0.00   4:  0.00   5:  0.00   6:  0.00   7:  0.34   8:  0.26
   9:  0.60  10:  0.50  11:  0.47  12:  0.62  13:  0.54  14:  0.61  15:  0.61  16:  0.63
  17:  0.41  18:  0.51  19:  0.63  20:  0.63  21:  0.89  22:  0.78  23:  0.30  24:  0.27
  25:  0.14  26:  0.13  27:  0.06  28:  0.08  29:  0.09  30:  0.49  31:  0.51  32:  0.52
  33:  0.48  34:  0.48  35:  0.49  36:  0.52  37:  0.49  38:  0.42  39:  0.19  40:  0.19
  41:  0.37  42:  0.26  43:  0.29  44:  0.29  45:  0.24  46:  0.14  47:  0.14  48:  0.10
  49:  0.09  50:  0.13  51:  0.12  52:  0.13  53:  0.04  54:  0.08  55:  0.15  56:  0.46
  57:  0.38  58:  0.48  59:  0.50  60:  0.34  61:  0.23  62:  0.16  63:  0.21  64:  0.14
  65:  0.12  66:  0.16  67:  0.16  68:  0.16  69:  0.13  70:  0.08  71:  0.07  72:  0.08
  73:  0.07  74:  0.07  75:  0.07  76:  0.06  77:  0.06  78:  0.06  79:  0.00  80:  0.00
  81:  0.63  82:  0.63  83:  0.65  84:  0.61  85:  0.65  86:  0.64  87:  0.64  88:  0.62
  89:  0.64  90:  0.59  91:  0.59  92:  0.92  93:  0.93  94:  0.88  95:  0.81  96:  0.34
  97:  0.31  98:  0.34  99:  0.30 100:  0.32 101:  0.23 102:  0.15 103:  0.21 104:  0.02
 105:  0.02 106:  0.03 107:  0.01 108:  0.01 109:  0.01 110:  0.01 111:  0.02 112:  0.02
 113:  0.03 114:  0.01 115:  0.01 116:  0.03 117:  0.02 118:  0.05 119:  0.08 120:  0.03
 121:  0.03 122:  0.00 123:  0.00
 recommended # of modes for mode following           4

optimized geometry written to: xtbopt.xyz


           -------------------------------------------------
          | TOTAL ENERGY              -42.142940721355 Eh   |
          | TOTAL ENTHALPY            -41.739608451417 Eh   |
          | TOTAL FREE ENERGY         -41.804418324252 Eh   |
          | GRADIENT NORM               0.000474438272 Eh/α |
          | HOMO-LUMO GAP              12.453221770354 eV   |
           -------------------------------------------------

------------------------------------------------------------------------
 * finished run on 2024/04/20 at 10:57:07.325     
------------------------------------------------------------------------
 total:
 * wall-time:     0 d,  0 h,  0 min,  5.014 sec
 *  cpu-time:     0 d,  0 h,  0 min,  8.376 sec
 * ratio c/w:     1.671 speedup
 SCF:
 * wall-time:     0 d,  0 h,  0 min,  0.024 sec
 *  cpu-time:     0 d,  0 h,  0 min,  0.090 sec
 * ratio c/w:     3.677 speedup
 ANC optimizer:
 * wall-time:     0 d,  0 h,  0 min,  0.498 sec
 *  cpu-time:     0 d,  0 h,  0 min,  1.087 sec
 * ratio c/w:     2.183 speedup
 analytical hessian:
 * wall-time:     0 d,  0 h,  0 min,  2.737 sec
 *  cpu-time:     0 d,  0 h,  0 min,  6.664 sec
 * ratio c/w:     2.435 speedup

