41
 energy: -42.140107589148 gnorm: 0.032408840742 xtb: 6.6.1 (8d0f1dd)
C            7.03932900000000       -0.63050300000000        0.11429000000000
C            5.59073200000000       -0.78566500000000       -0.32196700000000
C            4.69776000000000        0.35082600000000        0.17832800000000
C            3.24052500000000        0.20596500000000       -0.26137200000000
C            2.35674600000000        1.35824100000000        0.21797800000000
C            0.91032100000000        1.26824800000000       -0.27761300000000
C            0.13048600000000        0.09467900000000        0.31624200000000
C           -1.31439300000000        0.03006000000000       -0.17931300000000
C           -2.09808100000000       -1.13909300000000        0.41853700000000
C           -3.51716900000000       -1.27582600000000       -0.14097200000000
C           -4.43455300000000       -0.10569400000000        0.21611800000000
C           -5.85634800000000       -0.27897600000000       -0.32111400000000
C           -6.76595000000000        0.88762800000000        0.03071200000000
H            7.67057200000000       -1.44214500000000       -0.25639100000000
H            7.12516600000000       -0.61908400000000        1.20301300000000
H            7.46327800000000        0.30764100000000       -0.25071900000000
H            5.52959500000000       -0.83921100000000       -1.41758100000000
H            5.18943500000000       -1.74571300000000        0.03048400000000
H            5.09476500000000        1.31128900000000       -0.17360400000000
H            4.74925300000000        0.40679500000000        1.27288300000000
H            2.84385500000000       -0.74918700000000        0.10255200000000
H            3.19218300000000        0.13721000000000       -1.35524200000000
H            2.80489300000000        2.30715900000000       -0.10566500000000
H            2.36819300000000        1.39736900000000        1.31430600000000
H            0.90274500000000        1.19490000000000       -1.37226500000000
H            0.37661900000000        2.20091400000000       -0.05095900000000
H            0.14253300000000        0.16075700000000        1.41124100000000
H            0.63690600000000       -0.84898400000000        0.08165400000000
H           -1.81948400000000        0.97626800000000        0.04841000000000
H           -1.32429800000000       -0.04242300000000       -1.27400600000000
H           -2.14138600000000       -1.03030000000000        1.50945400000000
H           -1.53761800000000       -2.06778600000000        0.24709700000000
H           -3.47108500000000       -1.38241300000000       -1.23204000000000
H           -3.97341600000000       -2.20812200000000        0.21808700000000
H           -4.01407900000000        0.83144700000000       -0.16743100000000
H           -4.46446500000000        0.02061700000000        1.30549700000000
H           -6.27784200000000       -1.21723300000000        0.06379700000000
H           -5.81766000000000       -0.41224700000000       -1.41066300000000
H           -6.84880800000000        1.01065000000000        1.11223600000000
H           -6.37815000000000        1.82630100000000       -0.36951000000000
H           -7.77628300000000        0.75518000000000       -0.36372400000000
41
 energy: -42.142469595907 gnorm: 0.014420538714 xtb: 6.6.1 (8d0f1dd)
C            7.03076197724984       -0.62460449481509        0.11607230839044
C            5.58299102208023       -0.78328657978155       -0.32280366557842
C            4.69577349331057        0.35537005529832        0.17949461426190
C            3.24154559637905        0.20137436329712       -0.26323003330455
C            2.35580111133082        1.34930084833088        0.22028942390764
C            0.91207575093858        1.25826037500761       -0.27903645344767
C            0.13015701918431        0.08840700510658        0.31795326907242
C           -1.31298881745464        0.03577944223792       -0.18153840042824
C           -2.09897860195461       -1.12932693212443        0.41961172698382
C           -3.51484345160136       -1.26694373111402       -0.14401609635427
C           -4.43274877685765       -0.10033345047261        0.21792911632378
C           -5.85071280062713       -0.28412643418973       -0.32151229799426
C           -6.75693873110379        0.88503921246316        0.03322985391170
H            7.64702147658856       -1.44084998011463       -0.26035712769637
H            7.10935346261735       -0.61836487385361        1.20312206127700
H            7.44898477444075        0.31069062258489       -0.25580431598381
H            5.53446396298274       -0.82324907358835       -1.41668734724624
H            5.19120674509455       -1.73801663658731        0.04539244563851
H            5.08983851247765        1.30901220421540       -0.18806625458265
H            4.74122263729027        0.39438152616477        1.27313197390934
H            2.85249060328767       -0.74789518654020        0.11624826630716
H            3.19924985512152        0.14942068394427       -1.35649194632503
H            2.79182709058175        2.29504066679666       -0.12101229933897
H            2.36091361102787        1.37816993797421        1.31503842010600
H            0.91168320090146        1.17613025306625       -1.37118016842485
H            0.39040145430603        2.19048961577258       -0.03429336984402
H            0.13440018471710        0.17080494525660        1.41010127809541
H            0.62887907197509       -0.85220244927029        0.06709030214725
H           -1.81018588320803        0.97898367237957        0.06296439236443
H           -1.31527272669693       -0.05297021332204       -1.27325799294748
H           -2.15004025971276       -1.01172400784519        1.50730384174556
H           -1.55009226161113       -2.05866757221656        0.22961374895709
H           -3.46315556477383       -1.36350543309376       -1.23382680189238
H           -3.96065031595378       -2.19457833134132        0.23274136663553
H           -4.01961326725395        0.82992901326322       -0.18239275924800
H           -4.46968516026969        0.00837593310363        1.30714235065011
H           -6.27460559673488       -1.21184764518000        0.07845473034985
H           -5.81034371908322       -0.39892225916015       -1.41037544062034
H           -6.83876060297595        0.99963803409361        1.11391465151682
H           -6.36637439076053        1.81745371627528       -0.37411444683625
H           -7.76022968524992        0.73890215797830       -0.36607792445795
41
 energy: -42.142855640827 gnorm: 0.002303652785 xtb: 6.6.1 (8d0f1dd)
C            7.02592154454980       -0.62065793444798        0.11726820143296
C            5.57700929755220       -0.78129392972083       -0.32355279145398
C            4.69293804167709        0.35819300282157        0.17986550026493
C            3.24067856266403        0.19645875901840       -0.26439413537554
C            2.35509099989945        1.34276012228383        0.22159949586268
C            0.91243512931690        1.25093732577615       -0.27949448742710
C            0.13064209906547        0.08220878723555        0.31905748689863
C           -1.31163965785364        0.04126643807460       -0.18303451346378
C           -2.09760566819225       -1.12252731808228        0.41979890666587
C           -3.51225684512638       -1.26040382243908       -0.14561020070103
C           -4.43055928908089       -0.09561878065483        0.21828769531895
C           -5.84622599399603       -0.28775163334723       -0.32143064162343
C           -6.75310426109820        0.88302967955953        0.03453600229778
H            7.63423983886643       -1.43943181704142       -0.26146958679553
H            7.09846072233481       -0.61501400251124        1.20298107002034
H            7.43922248732354        0.31366015203606       -0.25731521395466
H            5.53354681359329       -0.81488921928997       -1.41513922469168
H            5.18896552151873       -1.73173386115545        0.05154457021464
H            5.08447640502619        1.30776197079315       -0.19442694342578
H            4.73566142170396        0.39054761039142        1.27161129056917
H            2.85869948480501       -0.75093520957515        0.12032279449336
H            3.20196189401006        0.15337424111224       -1.35607275411397
H            2.78403753709134        2.28670393492973       -0.12652872839156
H            2.35689419995007        1.36471484641776        1.31435809594536
H            0.91626331719559        1.16299659379355       -1.36906000448156
H            0.39714049640863        2.18215799307097       -0.02745991750944
H            0.13090997603146        0.17199265538699        1.40848134450186
H            0.62213784053060       -0.85779648611604        0.06154209990400
H           -1.80149339054803        0.98390492601942        0.06818520307355
H           -1.31014758377636       -0.05497414364631       -1.27196101260598
H           -2.15348286617579       -0.99881042099693        1.50436884872803
H           -1.55485603298211       -2.05139549886262        0.22269187654520
H           -3.45741859435563       -1.35009398239568       -1.23368131606653
H           -3.95187443880456       -2.18564836087296        0.23775649449307
H           -4.02438508857789        0.83226650833680       -0.18820322875758
H           -4.47076464233446        0.00434070538856        1.30602342303990
H           -6.26888064199760       -1.21000304655964        0.08534706425198
H           -5.80473543819291       -0.39485793802600       -1.40834943141263
H           -6.83101775142374        0.99332585066551        1.11431820169864
H           -6.35923690703394        1.81099137443340       -0.37554885042829
H           -7.75282653956425        0.72978292819644       -0.36644768354087
41
 energy: -42.142880618677 gnorm: 0.000937135566 xtb: 6.6.1 (8d0f1dd)
C            7.02472399090848       -0.61945302746647        0.11770661164534
C            5.57537040163344       -0.78079452498507       -0.32382884824980
C            4.69179736747968        0.35878099855119        0.17960742691687
C            3.24006844206440        0.19467360621268       -0.26508144824421
C            2.35486878310054        1.34028137995086        0.22234126652007
C            0.91259155474996        1.24835104261215       -0.27974039643044
C            0.13103159960352        0.08013517583322        0.31931486742714
C           -1.31093527976863        0.04293039003386       -0.18346337593527
C           -2.09713549728593       -1.11992130315552        0.42009962638621
C           -3.51131459570475       -1.25795668105603       -0.14658625486780
C           -4.42973305040726       -0.09374363088242        0.21850310822853
C           -5.84487623629553       -0.28893079468781       -0.32126673729079
C           -6.75281733097197        0.88196339601733        0.03482012808717
H            7.63275481022405       -1.43831130489787       -0.26038717140713
H            7.09543187239661       -0.61274600493238        1.20328781770809
H            7.43670574234382        0.31501973882168       -0.25722395596233
H            5.53190025998749       -0.81401308304201       -1.41496068306548
H            5.18714626769477       -1.73049379190852        0.05158014300208
H            5.08195724695248        1.30819734907733       -0.19524094538557
H            4.73410585179053        0.39182638905481        1.27093656366557
H            2.86010385627142       -0.75329263929406        0.11910723386215
H            3.20151549293214        0.15225131469625       -1.35636252319905
H            2.78348539525305        2.28403331600470       -0.12496543646146
H            2.35619589136800        1.36042943091725        1.31473696966759
H            0.91706224739824        1.15902244128986       -1.36878644536332
H            0.39702070794584        2.17889092988105       -0.02819407271860
H            0.13124090070161        0.16928157898193        1.40833008787688
H            0.61990726646216       -0.86058303950865        0.06120084873516
H           -1.79801101561680        0.98639053179793        0.06815455019042
H           -1.30932582107627       -0.05285821686607       -1.27198151729827
H           -2.15361222390371       -0.99468688495222        1.50405135598658
H           -1.55422397359134       -2.04820241742220        0.22371385860453
H           -3.45557042206753       -1.34591205149145       -1.23438262453279
H           -3.95045340527692       -2.18317957661951        0.23587604688595
H           -4.02562413055901        0.83460564299452       -0.18802044072756
H           -4.46966256599249        0.00588619185345        1.30586867007481
H           -6.26585509803652       -1.21096523827735        0.08644731758170
H           -5.80329592730542       -0.39641488396400       -1.40768789265299
H           -6.82899985262834        0.99196849598369        1.11450070065467
H           -6.35840562580141        1.80918778768304       -0.37568887333161
H           -7.75231189697237        0.72789096716087       -0.36557055658305
41
 energy: -42.142900185782 gnorm: 0.002142120954 xtb: 6.6.1 (8d0f1dd)
C            7.02263103370769       -0.61675131717972        0.11888899810764
C            5.57328459614236       -0.77996782232127       -0.32431419718283
C            4.68967375328837        0.35925827902548        0.17817307292128
C            3.23880194225078        0.19098239563758       -0.26644590256462
C            2.35434363456163        1.33491652506951        0.22403666904205
C            0.91338326287171        1.24302965051747       -0.28035795381545
C            0.13211964141573        0.07587326730111        0.31899673127429
C           -1.30955745662282        0.04637155594179       -0.18352888741972
C           -2.09661880352914       -1.11437175395167        0.42094204977544
C           -3.50922125282781       -1.25245529199302       -0.14886635791128
C           -4.42833175047600       -0.08980098838389        0.21831559085237
C           -5.84288542691460       -0.29082650662349       -0.32023993713850
C           -6.75331025819521        0.87922837750744        0.03552322726191
H            7.63208817412353       -1.43529648220502       -0.25650908578968
H            7.08983763283323       -0.60710296121193        1.20451331886378
H            7.43242161188204        0.31813136081835       -0.25695004547940
H            5.52938341007741       -0.81350089322497       -1.41510810070018
H            5.18420857239318       -1.72899080281835        0.05101250302414
H            5.07688293623358        1.30919017013236       -0.19754579335206
H            4.73132553103499        0.39511758289304        1.26917664088087
H            2.86213050298314       -0.75892010177276        0.11569215492847
H            3.19974873691205        0.14930340501896       -1.35742625374011
H            2.78397486919266        2.27912878944724       -0.11908828050292
H            2.35447053242385        1.35073112379158        1.31620297858081
H            0.91941749644903        1.15098596769060       -1.36884406437323
H            0.39573743771842        2.17259227558033       -0.03171948684520
H            0.13325989208572        0.16223534602635        1.40788733559811
H            0.61608777722743       -0.86682522872423        0.05978666888495
H           -1.79116778370379        0.99229520355002        0.06830249681234
H           -1.30848556987949       -0.04745350404273       -1.27188809794863
H           -2.15477786215106       -0.98579111446380        1.50408731865388
H           -1.55214136383517       -2.04199327001096        0.22839757073002
H           -3.45107230468983       -1.33631784860015       -1.23658546936186
H           -3.94893501689301       -2.17862832624329        0.22921162332705
H           -4.02786117532407        0.84023938408352       -0.18763155231522
H           -4.46676420374438        0.01016950511730        1.30543140232945
H           -6.25969584669222       -1.21357395403595        0.08922959989615
H           -5.80134108603596       -0.40071590228027       -1.40610968900854
H           -6.82610247388333        0.98956925220331        1.11521943266241
H           -6.35907974596948        1.80569065215473       -0.37631436650000
H           -7.75304159644117        0.72378300057938       -0.36278886245799
41
 energy: -42.142906328925 gnorm: 0.001182110078 xtb: 6.6.1 (8d0f1dd)
C            7.02275008936187       -0.61619951619432        0.11926456773774
C            5.57397544724677       -0.78008490784243       -0.32434837834138
C            4.68980589173846        0.35887534578267        0.17754733162114
C            3.23890639400696        0.19063264316423       -0.26661340266531
C            2.35432541603528        1.33418910037332        0.22442081444715
C            0.91388351592466        1.24257743238733       -0.28068348590553
C            0.13232039647855        0.07560713717062        0.31845240516478
C           -1.30955543281189        0.04661144156956       -0.18309576955570
C           -2.09714763849731       -1.11368796386437        0.42135125216955
C           -3.50908518162281       -1.25163992920924       -0.14944845520128
C           -4.42852418126850       -0.08938918187795        0.21796313796980
C           -5.84325838042054       -0.29074682342522       -0.31978250895870
C           -6.75394430065686        0.87867901515611        0.03581281862592
H            7.63303161091650       -1.43465289148110       -0.25524573779097
H            7.08975519366781       -0.60596654051810        1.20497855109458
H            7.43265799339745        0.31859460629148       -0.25691860702692
H            5.53035469039513       -0.81404742081419       -1.41533255068921
H            5.18500759752338       -1.72937402808165        0.05098403882773
H            5.07683827884555        1.30892825272375       -0.19856175042642
H            4.73157835588195        0.39525439971841        1.26870772226164
H            2.86210089574106       -0.75948747291369        0.11533039325529
H            3.19937599243840        0.14918641108128       -1.35777700316876
H            2.78449083255901        2.27887850670198       -0.11737786472318
H            2.35394829256210        1.34906355065704        1.31676459221515
H            0.92043958797125        1.15039290853494       -1.36932078589483
H            0.39587099818837        2.17237236758262       -0.03273936853737
H            0.13422863055146        0.16133209474761        1.40759786452496
H            0.61608227142989       -0.86720302939080        0.05854921205757
H           -1.79082626164196        0.99281061099323        0.06908862365435
H           -1.30910894133224       -0.04689874003921       -1.27168207135325
H           -2.15603395338976       -0.98466092878270        1.50457417451901
H           -1.55243179297573       -2.04164569794713        0.22988758532392
H           -3.45018477898633       -1.33467728618855       -1.23734288091055
H           -3.94928401436833       -2.17833663966894        0.22734111062920
H           -4.02821577220679        0.84082672853545       -0.18818690603701
H           -4.46643327817786        0.01075049219207        1.30527138087280
H           -6.25950669695373       -1.21375594227036        0.09016985525071
H           -5.80209259972585       -0.40125225254916       -1.40579354115321
H           -6.82664842607116        0.98959965484277        1.11554269543629
H           -6.36072541843025        1.80541374429841       -0.37662908240069
H           -7.75389932332397        0.72266974855422       -0.36195497691900
41
 energy: -42.142917670295 gnorm: 0.002476153303 xtb: 6.6.1 (8d0f1dd)
C            7.02415656877314       -0.61256037959539        0.12180307294899
C            5.57819452438822       -0.78094046233448       -0.32463380010460
C            4.69103099183649        0.35688239245895        0.17387536441525
C            3.23999679264289        0.18797125119086       -0.26782232489509
C            2.35464873557333        1.32935870361640        0.22681327834710
C            0.91685460875883        1.23968260779273       -0.28279852963710
C            0.13356646397049        0.07348561616068        0.31507826102651
C           -1.30977508809546        0.04863922710840       -0.18062100072434
C           -2.10030447504256       -1.10937334422949        0.42387286678042
C           -3.50862836057432       -1.24639108372522       -0.15322817502339
C           -4.43000965055120       -0.08639299065236        0.21570155633056
C           -5.84586481707949       -0.29081421933080       -0.31707454207163
C           -6.75850274243764        0.87541200942869        0.03781647196621
H            7.63859288699281       -1.43077655733962       -0.24747481578422
H            7.08920109880961       -0.59839107471770        1.20790132206409
H            7.43413221464573        0.32165096477486       -0.25663895571721
H            5.53678457452658       -0.81720667919325       -1.41626641862216
H            5.19038736408229       -1.73125454524702        0.05118909461499
H            5.07697165338753        1.30702083889394       -0.20482467574494
H            4.73357095331345        0.39596186163642        1.26549613590000
H            2.86322016903301       -0.76319414983531        0.11310209581697
H            3.19786376577883        0.14857652614481       -1.35959273096770
H            2.78715216691744        2.27656160176459       -0.10740074564334
H            2.35093872698560        1.33807465995946        1.31979265209658
H            0.92679801878209        1.14662472035396       -1.37190254234553
H            0.39773361366308        2.17062895668734       -0.03818684898833
H            0.14016992726541        0.15586087966167        1.40516491564065
H            0.61540085589969       -0.86968823804202        0.05050625487307
H           -1.78843960729716        0.99612926267597        0.07421498003226
H           -1.31331430358600       -0.04346729797088       -1.26998939864656
H           -2.16413496819642       -0.97730812367361        1.50703407817706
H           -1.55493918888554       -2.03907476376953        0.23844358669178
H           -3.44491040886835       -1.32411069029543       -1.24176574697975
H           -3.95092852239974       -2.17583006840562        0.21630202984752
H           -4.03160715611616        0.84454071015096       -0.19209621472002
H           -4.46478097145416        0.01431446667317        1.30367182441248
H           -6.25855473456796       -1.21471920080183        0.09616841476686
H           -5.80735084918997       -0.40439715832080       -1.40349461649548
H           -6.82974038447323        0.98970395134323        1.11760990447679
H           -6.37121678610924        1.80333539752756       -0.37850151955215
H           -7.75954166110195        0.71501342147573       -0.35647955856260
41
 energy: -42.142921536741 gnorm: 0.001622347730 xtb: 6.6.1 (8d0f1dd)
C            7.02486941590692       -0.61229147639000        0.12208215759439
C            5.57872631461414       -0.78106100425210       -0.32461338150131
C            4.69149947641194        0.35689200478303        0.17376220077306
C            3.24044186816156        0.18762805527998       -0.26801344415408
C            2.35500581197333        1.32893412031194        0.22690120046971
C            0.91703343502672        1.23953377915315       -0.28295399613812
C            0.13360445305884        0.07324789385928        0.31483649571823
C           -1.30994178063289        0.04895027439736       -0.18059769876247
C           -2.10058225582672       -1.10908522440118        0.42397193354394
C           -3.50897700945661       -1.24604842859579       -0.15354835446439
C           -4.43045082541211       -0.08605874587992        0.21548750863426
C           -5.84641775299162       -0.29104872244905       -0.31697520322091
C           -6.75938361783926        0.87526426185887        0.03808637340102
H            7.63923086688799       -1.43059804599090       -0.24689781156420
H            7.08949895797926       -0.59767604583586        1.20813284897353
H            7.43456579653352        0.32186695177100       -0.25659449242100
H            5.53758038111382       -0.81742427483635       -1.41608748435924
H            5.19114668476101       -1.73119030857509        0.05142950685028
H            5.07737521038562        1.30680977491862       -0.20510978914053
H            4.73407251195779        0.39604709956338        1.26522632168041
H            2.86405025375837       -0.76354226389526        0.11286824519832
H            3.19834098122255        0.14845860818165       -1.35962121726056
H            2.78731697789447        2.27606450946413       -0.10713150866826
H            2.35109253444525        1.33726168908830        1.31972650927745
H            0.92709582720110        1.14665614609234       -1.37192393934953
H            0.39831699630744        2.17039360976733       -0.03798962294628
H            0.14049671760649        0.15543382716549        1.40475190998314
H            0.61501451256088       -0.86983478990288        0.04979866920543
H           -1.78822940611970        0.99634771928820        0.07464516774029
H           -1.31384185108154       -0.04305025502867       -1.26979832899768
H           -2.16475273728423       -0.97690153446808        1.50694088663583
H           -1.55544663352947       -2.03869079420938        0.23855827448211
H           -3.44497389236845       -1.32354423444536       -1.24193724653159
H           -3.95107666744575       -2.17540319667301        0.21589996763805
H           -4.03255610865831        0.84479702122406       -0.19260507557312
H           -4.46500626321194        0.01471269380707        1.30329284056575
H           -6.25881864686312       -1.21475197298314        0.09658556089268
H           -5.80827542698254       -0.40461686718009       -1.40325118373273
H           -6.83000894820142        0.98975398655648        1.11783274981812
H           -6.37239307586603        1.80303176238720       -0.37862063083610
H           -7.76042108599728        0.71427139707324       -0.35578191945394
41
 energy: -42.142929623443 gnorm: 0.001913112691 xtb: 6.6.1 (8d0f1dd)
C            7.03040309838088       -0.60965162939377        0.12460581933682
C            5.58397153545442       -0.78190147294062       -0.32420332327825
C            4.69531668826469        0.35641860239979        0.17210987127577
C            3.24406441243449        0.18469226054990       -0.26959042000755
C            2.35766135163855        1.32473460728313        0.22778416189746
C            0.91913353104501        1.23764985421743       -0.28420115809983
C            0.13409400845151        0.07107817326619        0.31223108957041
C           -1.31123647570159        0.05173296020925       -0.17986998795827
C           -2.10346621487078       -1.10588449136225        0.42474892148349
C           -3.51152266211075       -1.24233985276911       -0.15644390403614
C           -4.43424952857537       -0.08308516244587        0.21330427603751
C           -5.85134689335540       -0.29255125274497       -0.31547834180670
C           -6.76681240430026        0.87326154733173        0.04045896171153
H            7.64560451616241       -1.42850224143833       -0.24092165677431
H            7.09216142589574       -0.59106261801199        1.21051478203715
H            7.43855332107292        0.32394141297679       -0.25636377885160
H            5.54479780758132       -0.81981390505392       -1.41503081152912
H            5.19796732331466       -1.73129944614003        0.05336152767022
H            5.08039598567461        1.30529316845984       -0.20842619424230
H            4.73806619816541        0.39710442636440        1.26291437823864
H            2.87004693972474       -0.76708466967329        0.11053942743117
H            3.20166146937384        0.14720325224032       -1.36055346977435
H            2.78961046803444        2.27225094202080       -0.10317314550299
H            2.35190525312571        1.32931040110930        1.32000539835893
H            0.93038835060406        1.14621100315908       -1.37267117618568
H            0.40252616276539        2.16838772170226       -0.03762775300538
H            0.14397072803162        0.15068685237406        1.40159929164775
H            0.61228971539693       -0.87180208502214        0.04302170957738
H           -1.78641239998332        0.99915681331483        0.07869083462040
H           -1.31842480202145       -0.03871029848170       -1.26849018640797
H           -2.17065500402464       -0.97253632740999        1.50675326063266
H           -1.55934942155966       -2.03547320635021        0.24087575403034
H           -3.44479321410179       -1.31752902679575       -1.24423875570715
H           -3.95312567990396       -2.17198510897283        0.21082547818552
H           -4.03994687099473        0.84760771455640       -0.19721617118654
H           -4.46643425092906        0.01875051289528        1.30042812630662
H           -6.26078877901276       -1.21554245168629        0.10096994040701
H           -5.81638915342006       -0.40714042266782       -1.40112831596874
H           -6.83282161783525        0.99005538795436        1.12000825658947
H           -6.38355822105151        1.80045302988547       -0.38012379792885
H           -7.76843469684102        0.70745402509030       -0.34923391879455
41
 energy: -42.142933427424 gnorm: 0.001015515725 xtb: 6.6.1 (8d0f1dd)
C            7.03171369944421       -0.60879588995087        0.12531086962574
C            5.58575560739203       -0.78191183619423       -0.32380086748330
C            4.69631524736751        0.35610023175532        0.17154340622106
C            3.24508987469042        0.18386495249747       -0.26998414746479
C            2.35826109952579        1.32326115553544        0.22791946868471
C            0.91997717858257        1.23673987552128       -0.28432822166706