 Entering Gaussian System
 *********************************************
 Gaussian 98:
 frequency output generated by the xtb code
 *********************************************
                         Standard orientation:
 --------------------------------------------------------------------
  Center     Atomic     Atomic              Coordinates (Angstroms)
  Number     Number      Type              X           Y           Z
 --------------------------------------------------------------------
    1          6             0       -1.569695   -0.033655   -0.568132
    2          6             0       -0.672972    0.362885    0.599801
    3          6             0        0.672973   -0.363166    0.599592
    4          6             0        1.569630    0.033853   -0.568223
    5          1             0       -1.126899    0.257168   -1.516952
    6          1             0       -1.728954   -1.109910   -0.576770
    7          1             0       -2.537614    0.455327   -0.483008
    8          1             0       -0.499610    1.441143    0.573730
    9          1             0       -1.191488    0.134583    1.534200
   10          1             0        0.499563   -1.441408    0.573040
   11          1             0        1.191571   -0.135318    1.534057
   12          1             0        2.537153   -0.456064   -0.483951
   13          1             0        1.126244   -0.255586   -1.517189
   14          1             0        1.729816    1.109977   -0.575782
 --------------------------------------------------------------------
     1 basis functions        1 primitive gaussians
     1 alpha electrons        1 beta electrons
 
 Harmonic frequencies (cm**-1), IR intensities (km*mol⁻¹),
 Raman scattering activities (A**4/amu), Raman depolarization ratios,
 reduced masses (AMU), force constants (mDyne/A) and normal coordinates:
                      1                      2                      3
                        a                      a                      a 
 Frequencies --    96.4531               200.4926               258.4921
 Red. masses --     4.9705                 1.4522                 4.0038
 Frc consts  --     0.0000                 0.0000                 0.0000
 IR Inten    --     0.0062                 0.0667                 0.0534
 Raman Activ --     0.0000                 0.0000                 0.0000
 Depolar     --     0.0000                 0.0000                 0.0000
 Atom AN      X      Y      Z        X      Y      Z        X      Y      Z
   1   6    -0.25  -0.17   0.17     0.02  -0.09  -0.01    -0.31   0.04   0.12
   2   6     0.07   0.13  -0.18    -0.02   0.10  -0.04     0.03   0.07  -0.14
   3   6    -0.07  -0.13  -0.18    -0.02   0.10   0.04    -0.03  -0.07  -0.14
   4   6     0.25   0.17   0.17     0.02  -0.09   0.01     0.31  -0.04   0.12
   5   1    -0.05  -0.31  -0.02    -0.19   0.30   0.01    -0.30   0.26   0.01
   6   1    -0.24  -0.03   0.27     0.35  -0.07  -0.20     0.15  -0.02  -0.12
   7   1     0.00   0.12  -0.02    -0.14  -0.35   0.19    -0.18  -0.22   0.27
   8   1     0.08   0.03  -0.19    -0.03   0.03  -0.03     0.04   0.01  -0.08
   9   1     0.06   0.18   0.00    -0.00   0.04  -0.01     0.05   0.07  -0.00
  10   1    -0.08  -0.03  -0.19    -0.03   0.03   0.03    -0.04  -0.01  -0.08
  11   1    -0.06  -0.18   0.00    -0.00   0.04   0.01    -0.05  -0.07  -0.00
  12   1    -0.00  -0.12  -0.02    -0.14  -0.35  -0.19     0.18   0.22   0.27
  13   1     0.05   0.31  -0.02    -0.19   0.30  -0.01     0.30  -0.26   0.01
  14   1     0.24   0.03   0.27     0.35  -0.07   0.20    -0.15   0.02  -0.11
                      4                      5                      6
                        a                      a                      a 
 Frequencies --   322.1598               432.2605               787.7764
 Red. masses --     6.7825                 7.2181                 2.4980
 Frc consts  --     0.0000                 0.0000                 0.0000
 IR Inten    --     0.2360                 1.1127                 9.6158
 Raman Activ --     0.0000                 0.0000                 0.0000
 Depolar     --     0.0000                 0.0000                 0.0000
 Atom AN      X      Y      Z        X      Y      Z        X      Y      Z
   1   6    -0.35   0.12  -0.03    -0.22   0.10  -0.13    -0.01  -0.00  -0.11
   2   6    -0.18  -0.30   0.00     0.26  -0.17  -0.33     0.14   0.14  -0.13
   3   6     0.18   0.30   0.00     0.26  -0.17   0.33     0.14   0.14   0.13
   4   6     0.35  -0.12  -0.03    -0.22   0.10   0.13    -0.01  -0.00   0.11
   5   1    -0.07  -0.01  -0.01    -0.20   0.06  -0.09    -0.23  -0.15  -0.18
   6   1    -0.26   0.06  -0.03    -0.15   0.04  -0.08     0.01  -0.01   0.19
   7   1    -0.03   0.18   0.02    -0.01   0.10   0.16    -0.01  -0.03   0.12
   8   1    -0.17  -0.06   0.15     0.18  -0.07  -0.21    -0.16   0.07   0.31
   9   1    -0.01  -0.26  -0.02     0.03   0.12  -0.08    -0.04  -0.34  -0.16
  10   1     0.17   0.06   0.15     0.18  -0.07   0.21    -0.16   0.07  -0.31
  11   1     0.01   0.26  -0.02     0.03   0.12   0.08    -0.04  -0.34   0.16
  12   1     0.03  -0.18   0.02    -0.01   0.10  -0.16    -0.01  -0.03  -0.12
  13   1     0.07   0.01  -0.01    -0.20   0.06   0.09    -0.23  -0.15   0.18
  14   1     0.26  -0.06  -0.03    -0.15   0.04   0.08     0.01  -0.01  -0.19
                      7                      8                      9
                        a                      a                      a 
 Frequencies --   831.5375               884.6252               981.4178
 Red. masses --     3.1240                 6.8576                 2.4634
 Frc consts  --     0.0000                 0.0000                 0.0000
 IR Inten    --     4.0269                 0.0186                 4.0830
 Raman Activ --     0.0000                 0.0000                 0.0000
 Depolar     --     0.0000                 0.0000                 0.0000
 Atom AN      X      Y      Z        X      Y      Z        X      Y      Z
   1   6     0.13   0.09   0.06     0.26  -0.07   0.16    -0.01   0.21   0.01
   2   6     0.16   0.07  -0.19     0.24  -0.29  -0.17    -0.08  -0.13   0.00
   3   6    -0.16  -0.07  -0.19    -0.24   0.29  -0.17    -0.08  -0.13  -0.00
   4   6    -0.13  -0.09   0.06    -0.26   0.07   0.16    -0.01   0.21  -0.01
   5   1    -0.17  -0.15  -0.13    -0.03   0.10   0.04    -0.03  -0.14  -0.07
   6   1     0.13   0.01   0.29    -0.15   0.02  -0.12     0.24   0.01   0.30
   7   1     0.00  -0.06   0.12     0.19   0.17   0.29    -0.12  -0.17  -0.12
   8   1     0.00   0.03   0.31     0.01  -0.07  -0.15     0.38  -0.10   0.09
   9   1     0.01  -0.31  -0.15     0.10  -0.02  -0.01    -0.16   0.10  -0.05
  10   1    -0.00  -0.03   0.31    -0.01   0.07  -0.15     0.38  -0.10  -0.09
  11   1    -0.01   0.31  -0.15    -0.10   0.02  -0.01    -0.16   0.10   0.05
  12   1    -0.00   0.06   0.12    -0.19  -0.17   0.29    -0.12  -0.17   0.12
  13   1     0.17   0.15  -0.13     0.03  -0.10   0.04    -0.03  -0.14   0.07
  14   1    -0.13  -0.01   0.29     0.15  -0.02  -0.12     0.24   0.01  -0.30
                     10                     11                     12
                        a                      a                      a 
 Frequencies --  1017.3930              1020.6944              1138.4381
 Red. masses --     4.4196                 6.9455                 7.4556
 Frc consts  --     0.0000                 0.0000                 0.0000
 IR Inten    --     1.0330                 5.5969                 0.3307
 Raman Activ --     0.0000                 0.0000                 0.0000
 Depolar     --     0.0000                 0.0000                 0.0000
 Atom AN      X      Y      Z        X      Y      Z        X      Y      Z
   1   6    -0.05   0.09   0.27    -0.34  -0.04  -0.23     0.18   0.13   0.18
   2   6    -0.00  -0.04  -0.27     0.26   0.09   0.16    -0.43   0.04  -0.17
   3   6    -0.00   0.04  -0.27     0.26   0.09  -0.17     0.43  -0.04  -0.17
   4   6     0.05  -0.09   0.27    -0.34  -0.04   0.23    -0.18  -0.13   0.18
   5   1     0.29   0.06   0.22     0.09  -0.03   0.01    -0.01   0.01   0.01
   6   1     0.14   0.00  -0.00     0.04  -0.03  -0.08     0.05   0.03   0.13
   7   1    -0.08  -0.06  -0.26    -0.15  -0.10  -0.30     0.04   0.02   0.10
   8   1    -0.06   0.00  -0.01     0.06   0.03   0.09    -0.25   0.03  -0.18
   9   1     0.29  -0.14   0.06     0.25  -0.05   0.12    -0.24   0.08  -0.10
  10   1     0.06  -0.00  -0.01     0.06   0.03  -0.09     0.25  -0.03  -0.18
  11   1    -0.29   0.14   0.06     0.25  -0.05  -0.12     0.24  -0.08  -0.10
  12   1     0.08   0.06  -0.26    -0.15  -0.10   0.30    -0.04  -0.02   0.10
  13   1    -0.29  -0.06   0.22     0.08  -0.03  -0.01     0.02  -0.01   0.01
  14   1    -0.14  -0.00  -0.01     0.04  -0.03   0.08    -0.05  -0.03   0.13
                     13                     14                     15
                        a                      a                      a 
 Frequencies --  1145.3493              1188.3036              1256.3047
 Red. masses --     6.7826                 6.5669                 3.1761
 Frc consts  --     0.0000                 0.0000                 0.0000
 IR Inten    --     3.0837                 0.0333                 0.6937
 Raman Activ --     0.0000                 0.0000                 0.0000
 Depolar     --     0.0000                 0.0000                 0.0000
 Atom AN      X      Y      Z        X      Y      Z        X      Y      Z
   1   6    -0.10   0.11   0.28    -0.01   0.24  -0.04    -0.07  -0.22   0.09
   2   6     0.05  -0.06  -0.40     0.02  -0.44   0.05     0.03   0.18  -0.06
   3   6     0.05  -0.07   0.40    -0.02   0.44   0.05     0.03   0.18   0.06
   4   6    -0.10   0.11  -0.28     0.01  -0.24  -0.04    -0.07  -0.22  -0.09
   5   1     0.25   0.04   0.20    -0.04  -0.13  -0.08     0.09   0.12   0.13
   6   1     0.14   0.00   0.01     0.18   0.02   0.23    -0.11  -0.03  -0.20
   7   1    -0.08  -0.05  -0.20    -0.10  -0.12  -0.07     0.05   0.09  -0.00
   8   1    -0.17   0.01  -0.02     0.19  -0.14  -0.17     0.35  -0.00   0.30
   9   1     0.03  -0.16  -0.12    -0.02   0.14   0.06    -0.24  -0.02  -0.16
  10   1    -0.17   0.01   0.02    -0.19   0.14  -0.17     0.35  -0.00  -0.30
  11   1     0.03  -0.16   0.12     0.02  -0.14   0.06    -0.24  -0.02   0.16
  12   1    -0.08  -0.05   0.20     0.10   0.12  -0.07     0.05   0.09   0.00
  13   1     0.25   0.04  -0.20     0.04   0.13  -0.08     0.09   0.12  -0.13
  14   1     0.14   0.00  -0.01    -0.18  -0.02   0.23    -0.11  -0.03   0.20
                     16                     17                     18
                        a                      a                      a 
 Frequencies --  1276.8593              1350.2874              1356.6044
 Red. masses --     2.3392                 4.0837                 5.1291
 Frc consts  --     0.0000                 0.0000                 0.0000
 IR Inten    --     0.4274                 3.8697                 0.7014
 Raman Activ --     0.0000                 0.0000                 0.0000
 Depolar     --     0.0000                 0.0000                 0.0000
 Atom AN      X      Y      Z        X      Y      Z        X      Y      Z
   1   6     0.09   0.07  -0.16    -0.04   0.04   0.06     0.08  -0.07  -0.04
   2   6    -0.06   0.08   0.11     0.28  -0.05   0.23    -0.40   0.02  -0.11
   3   6     0.06  -0.08   0.11     0.27  -0.05  -0.23     0.40  -0.02  -0.11
   4   6    -0.09  -0.07  -0.16    -0.04   0.04  -0.06    -0.08   0.07  -0.04
   5   1    -0.13  -0.06  -0.13    -0.04  -0.05  -0.02    -0.01   0.06   0.01
   6   1    -0.00   0.02   0.10    -0.02   0.01  -0.09    -0.05  -0.01   0.05
   7   1     0.01  -0.02   0.08    -0.07  -0.07  -0.14     0.06   0.04   0.12
   8   1    -0.30   0.06  -0.14    -0.23   0.03  -0.13     0.43  -0.08   0.19
   9   1     0.44  -0.02   0.27    -0.45   0.11  -0.20     0.20   0.02   0.14
  10   1     0.30  -0.06  -0.14    -0.23   0.03   0.13    -0.43   0.08   0.19
  11   1    -0.44   0.02   0.27    -0.45   0.11   0.20    -0.20  -0.02   0.14
  12   1    -0.01   0.02   0.08    -0.07  -0.07   0.14    -0.06  -0.04   0.12
  13   1     0.13   0.06  -0.13    -0.04  -0.05   0.02     0.01  -0.06   0.01
  14   1     0.00  -0.02   0.10    -0.02   0.01   0.09     0.05   0.01   0.05
                     19                     20                     21
                        a                      a                      a 
 Frequencies --  1414.6655              1415.0402              1490.9361
 Red. masses --     3.3384                 3.1018                 1.8644
 Frc consts  --     0.0000                 0.0000                 0.0000
 IR Inten    --     3.1451                 0.6509                 0.2678
 Raman Activ --     0.0000                 0.0000                 0.0000
 Depolar     --     0.0000                 0.0000                 0.0000
 Atom AN      X      Y      Z        X      Y      Z        X      Y      Z
   1   6     0.19   0.06   0.23     0.19   0.08   0.23    -0.03  -0.03   0.02
   2   6    -0.07   0.02  -0.07    -0.06   0.01  -0.00    -0.05   0.13   0.14
   3   6    -0.07   0.02   0.07     0.05  -0.01  -0.00    -0.05   0.13  -0.14
   4   6     0.20   0.06  -0.23    -0.19  -0.08   0.22    -0.03  -0.03  -0.02
   5   1    -0.30  -0.10  -0.16    -0.28  -0.15  -0.17    -0.06   0.05  -0.01
   6   1    -0.21   0.04  -0.27    -0.23   0.05  -0.31     0.09  -0.01   0.02
   7   1    -0.08  -0.14  -0.31    -0.11  -0.18  -0.28     0.05   0.11  -0.06
   8   1     0.07  -0.01   0.02     0.08  -0.02  -0.03     0.20  -0.04  -0.42
   9   1     0.11  -0.04   0.04     0.03  -0.06   0.00    -0.02  -0.45  -0.12
  10   1     0.07  -0.01  -0.02    -0.08   0.02  -0.03     0.20  -0.04   0.42
  11   1     0.11  -0.05  -0.04    -0.03   0.06   0.00    -0.02  -0.45   0.12
  12   1    -0.09  -0.15   0.32     0.10   0.18  -0.27     0.05   0.11   0.06
  13   1    -0.30  -0.10   0.16     0.28   0.15  -0.17    -0.06   0.05   0.01
  14   1    -0.22   0.04   0.27     0.23  -0.04  -0.30     0.09  -0.01  -0.02
                     22                     23                     24
                        a                      a                      a 
 Frequencies --  1493.8432              1503.4482              1504.8952
 Red. masses --     1.7189                 1.5664                 1.8370
 Frc consts  --     0.0000                 0.0000                 0.0000
 IR Inten    --     0.4162                 2.9129                 0.5057
 Raman Activ --     0.0000                 0.0000                 0.0000
 Depolar     --     0.0000                 0.0000                 0.0000
 Atom AN      X      Y      Z        X      Y      Z        X      Y      Z
   1   6     0.05  -0.02  -0.08    -0.04  -0.13   0.06     0.11  -0.01  -0.06
   2   6    -0.01   0.10   0.12     0.01  -0.06  -0.02     0.07  -0.09  -0.10
   3   6     0.01  -0.10   0.12     0.01  -0.06   0.02    -0.07   0.09  -0.10
   4   6    -0.05   0.02  -0.07    -0.04  -0.13  -0.06    -0.11   0.01  -0.06
   5   1     0.05   0.21   0.08    -0.28   0.21  -0.06     0.03   0.23   0.08
   6   1    -0.22   0.03   0.22     0.27  -0.05   0.10    -0.34   0.05   0.22
   7   1    -0.08  -0.15  -0.01     0.16   0.36  -0.28    -0.12  -0.25  -0.06
   8   1     0.16  -0.03  -0.34    -0.08   0.01   0.09    -0.14   0.02   0.25
   9   1    -0.02  -0.37  -0.10     0.01   0.13   0.04    -0.02   0.27   0.04
  10   1    -0.16   0.03  -0.35    -0.08   0.01  -0.09     0.14  -0.02   0.25
  11   1     0.02   0.37  -0.10     0.01   0.13  -0.04     0.02  -0.27   0.04
  12   1     0.08   0.15  -0.01     0.16   0.36   0.28     0.12   0.25  -0.06
  13   1    -0.05  -0.21   0.08    -0.28   0.21   0.06    -0.03  -0.23   0.07
  14   1     0.22  -0.03   0.22     0.27  -0.05  -0.10     0.34  -0.05   0.21
                     25                     26                     27
                        a                      a                      a 
 Frequencies --  1508.2130              1517.0981              2962.7549
 Red. masses --     1.5378                 1.5496                 1.9336
 Frc consts  --     0.0000                 0.0000                 0.0000
 IR Inten    --     3.0305                 0.4746                19.4211
 Raman Activ --     0.0000                 0.0000                 0.0000
 Depolar     --     0.0000                 0.0000                 0.0000
 Atom AN      X      Y      Z        X      Y      Z        X      Y      Z
   1   6     0.11  -0.07  -0.08    -0.02   0.14  -0.06     0.01   0.01  -0.01
   2   6     0.03  -0.01  -0.00    -0.01   0.04  -0.01    -0.07  -0.16   0.10
   3   6     0.03  -0.01   0.00     0.01  -0.04  -0.01     0.07   0.16   0.10
   4   6     0.11  -0.07   0.08     0.02  -0.14  -0.06    -0.01  -0.01  -0.01
   5   1    -0.04   0.41   0.10     0.33  -0.33   0.05    -0.02  -0.01   0.04
   6   1    -0.32   0.04   0.36    -0.13   0.03  -0.18    -0.01  -0.04  -0.00
   7   1    -0.09  -0.17  -0.14    -0.11  -0.27   0.35    -0.01   0.01  -0.00
   8   1    -0.01  -0.00  -0.03     0.01   0.01   0.01     0.08   0.53  -0.01
   9   1    -0.02  -0.02  -0.02    -0.00  -0.01  -0.01     0.19   0.07  -0.35
  10   1    -0.01  -0.00   0.03    -0.01  -0.01   0.01    -0.08  -0.54  -0.01
  11   1    -0.02  -0.02   0.02     0.00   0.01  -0.01    -0.19  -0.07  -0.35
  12   1    -0.09  -0.17   0.14     0.11   0.27   0.35     0.01  -0.01  -0.00
  13   1    -0.04   0.41  -0.10    -0.33   0.33   0.05     0.02   0.01   0.04
  14   1    -0.32   0.04  -0.36     0.13  -0.03  -0.17     0.01   0.04  -0.00
                     28                     29                     30
                        a                      a                      a 
 Frequencies --  2965.0975              2981.0701              2981.2231
 Red. masses --     1.8845                 1.5993                 1.4946
 Frc consts  --     0.0000                 0.0000                 0.0000
 IR Inten    --    36.1890                57.0843                52.8194
 Raman Activ --     0.0000                 0.0000                 0.0000
 Depolar     --     0.0000                 0.0000                 0.0000
 Atom AN      X      Y      Z        X      Y      Z        X      Y      Z
   1   6    -0.01  -0.01   0.01    -0.01   0.03  -0.00     0.02  -0.01  -0.01
   2   6     0.09   0.10  -0.14    -0.00  -0.15  -0.04    -0.05   0.08   0.12
   3   6     0.09   0.10   0.14     0.01  -0.16   0.05     0.05  -0.06   0.12
   4   6    -0.01  -0.01  -0.01    -0.01   0.03  -0.00    -0.02   0.01  -0.01
   5   1     0.02   0.01  -0.05    -0.00   0.01  -0.00    -0.02  -0.02   0.04
   6   1     0.00   0.05   0.00    -0.01  -0.09   0.00     0.01   0.03  -0.00
   7   1     0.01  -0.01   0.00     0.04  -0.02  -0.01    -0.05   0.02   0.00
   8   1    -0.03  -0.22  -0.01     0.11   0.60  -0.03    -0.08  -0.45   0.04
   9   1    -0.30  -0.14   0.54    -0.10  -0.07   0.17     0.27   0.14  -0.47
  10   1    -0.03  -0.22   0.01     0.12   0.65   0.04     0.07   0.37   0.03
  11   1    -0.30  -0.13  -0.54    -0.13  -0.09  -0.23    -0.25  -0.13  -0.45
  12   1     0.01  -0.01  -0.00     0.05  -0.02   0.01     0.04  -0.02   0.00
  13   1     0.02   0.01   0.05     0.00   0.01   0.01     0.02   0.01   0.04
  14   1     0.01   0.05  -0.00    -0.02  -0.09  -0.00    -0.01  -0.02  -0.00
                     31                     32                     33
                        a                      a                      a 
 Frequencies --  3029.3663              3031.8322              3034.0696
 Red. masses --     1.8959                 1.9259                 1.7703
 Frc consts  --     0.0000                 0.0000                 0.0000
 IR Inten    --     0.5505               111.0222                86.5716
 Raman Activ --     0.0000                 0.0000                 0.0000
 Depolar     --     0.0000                 0.0000                 0.0000
 Atom AN      X      Y      Z        X      Y      Z        X      Y      Z
   1   6    -0.04   0.20   0.00    -0.08   0.18   0.03    -0.15  -0.07   0.07
   2   6    -0.00   0.02   0.00     0.00   0.03   0.00    -0.01  -0.01   0.01
   3   6     0.00  -0.02   0.00     0.00   0.03  -0.00    -0.01  -0.02  -0.01
   4   6     0.04  -0.20   0.00    -0.09   0.18  -0.03    -0.16  -0.07  -0.08
   5   1    -0.02   0.02   0.02     0.02   0.05  -0.07     0.10   0.07  -0.22
   6   1    -0.09  -0.61   0.00    -0.09  -0.52   0.01     0.03   0.39   0.01
   7   1     0.24  -0.10  -0.03     0.36  -0.17  -0.04     0.39  -0.22  -0.03
   8   1    -0.01  -0.05   0.00    -0.02  -0.11   0.01     0.00   0.04  -0.00
   9   1     0.01   0.01  -0.01     0.01   0.01  -0.01     0.02   0.01  -0.04
  10   1     0.01   0.05   0.00    -0.02  -0.11  -0.01     0.00   0.04   0.00
  11   1    -0.01  -0.01  -0.01     0.01   0.01   0.01     0.03   0.01   0.04
  12   1    -0.24   0.10  -0.03     0.36  -0.17   0.04     0.44  -0.25   0.04
  13   1     0.02  -0.02   0.02     0.02   0.05   0.07     0.10   0.07   0.24
  14   1     0.09   0.61   0.00    -0.09  -0.52  -0.01     0.04   0.42  -0.01
                     34                     35                     36
                        a                      a                      a 
 Frequencies --  3034.2066              3044.1552              3050.2983
 Red. masses --     1.6951                 1.4589                 1.5541
 Frc consts  --     0.0000                 0.0000                 0.0000
 IR Inten    --     3.9336                 5.3907                64.6853
 Raman Activ --     0.0000                 0.0000                 0.0000
 Depolar     --     0.0000                 0.0000                 0.0000
 Atom AN      X      Y      Z        X      Y      Z        X      Y      Z
   1   6     0.18   0.01  -0.06    -0.00  -0.05   0.13    -0.04  -0.04   0.15
   2   6     0.01   0.00  -0.01    -0.00  -0.01   0.01    -0.01  -0.01   0.02
   3   6    -0.01  -0.00  -0.01    -0.00  -0.01  -0.01     0.01   0.01   0.02
   4   6    -0.16  -0.00  -0.05    -0.00  -0.05  -0.13     0.04   0.04   0.15
   5   1    -0.05  -0.05   0.15     0.27   0.17  -0.54     0.28   0.18  -0.57
   6   1    -0.01  -0.28  -0.01    -0.02  -0.12   0.02    -0.02  -0.09   0.02
   7   1    -0.56   0.30   0.05    -0.24   0.12   0.04    -0.13   0.06   0.03
   8   1     0.00  -0.00  -0.00     0.00   0.01   0.00     0.00   0.01   0.00
   9   1    -0.03  -0.01   0.05     0.02   0.01  -0.02     0.03   0.01  -0.05
  10   1    -0.00  -0.00  -0.00     0.00   0.01  -0.00    -0.00  -0.01   0.00
  11   1     0.03   0.01   0.05     0.02   0.01   0.02    -0.03  -0.01  -0.05
  12   1     0.51  -0.28   0.05    -0.24   0.12  -0.04     0.13  -0.06   0.03
  13   1     0.04   0.04   0.12     0.27   0.17   0.54    -0.29  -0.18  -0.57
  14   1     0.01   0.25  -0.01    -0.02  -0.12  -0.02     0.02   0.09   0.02
