 Entering Gaussian System
 *********************************************
 Gaussian 98:
 frequency output generated by the xtb code
 *********************************************
                         Standard orientation:
 --------------------------------------------------------------------
  Center     Atomic     Atomic              Coordinates (Angstroms)
  Number     Number      Type              X           Y           Z
 --------------------------------------------------------------------
    1          6             0       -1.569695   -0.033655   -0.568132
    2          6             0       -0.672972    0.362885    0.599801
    3          6             0        0.672973   -0.363166    0.599592
    4          6             0        1.569630    0.033853   -0.568223
    5          1             0       -1.126899    0.257168   -1.516952
    6          1             0       -1.728954   -1.109910   -0.576770
    7          1             0       -2.537614    0.455327   -0.483008
    8          1             0       -0.499610    1.441143    0.573730
    9          1             0       -1.191488    0.134583    1.534200
   10          1             0        0.499563   -1.441408    0.573040
   11          1             0        1.191571   -0.135318    1.534057
   12          1             0        2.537153   -0.456064   -0.483951
   13          1             0        1.126244   -0.255586   -1.517189
   14          1             0        1.729816    1.109977   -0.575782
 --------------------------------------------------------------------
     1 basis functions        1 primitive gaussians
     1 alpha electrons        1 beta electrons
 
 Harmonic frequencies (cm**-1), IR intensities (KM/Mole),
 Raman scattering activities (A**4/amu), Raman depolarization ratios,
 reduced masses (AMU), force constants (mDyne/A) and normal coordinates:
                      1                      2                      3
                        a                      a                      a 
 Frequencies --    96.4531               200.4926               258.4921
 Red. masses --    99.0000                99.0000                99.0000
 Frc consts  --    99.0000                99.0000                99.0000
 IR Inten    --    99.0000                99.0000                99.0000
 Raman Activ --     0.0000                 0.0000                 0.0000
 Depolar     --     0.0000                 0.0000                 0.0000
 Atom AN      X      Y      Z        X      Y      Z        X      Y      Z
   1   6    -0.25  -0.17   0.17     0.02  -0.09  -0.01    -0.31   0.04   0.12
   2   6     0.07   0.13  -0.18    -0.02   0.10  -0.04     0.03   0.07  -0.14
   3   6    -0.07  -0.13  -0.18    -0.02   0.10   0.04    -0.03  -0.07  -0.14
   4   6     0.25   0.17   0.17     0.02  -0.09   0.01     0.31  -0.04   0.12
   5   1    -0.05  -0.31  -0.02    -0.19   0.30   0.01    -0.30   0.26   0.01
   6   1    -0.24  -0.03   0.27     0.35  -0.07  -0.20     0.15  -0.02  -0.12
   7   1     0.00   0.12  -0.02    -0.14  -0.35   0.19    -0.18  -0.22   0.27
   8   1     0.08   0.03  -0.19    -0.03   0.03  -0.03     0.04   0.01  -0.08
   9   1     0.06   0.18   0.00    -0.00   0.04  -0.01     0.05   0.07  -0.00
  10   1    -0.08  -0.03  -0.19    -0.03   0.03   0.03    -0.04  -0.01  -0.08
  11   1    -0.06  -0.18   0.00    -0.00   0.04   0.01    -0.05  -0.07  -0.00
  12   1    -0.00  -0.12  -0.02    -0.14  -0.35  -0.19     0.18   0.22   0.27
  13   1     0.05   0.31  -0.02    -0.19   0.30  -0.01     0.30  -0.26   0.01
  14   1     0.24   0.03   0.27     0.35  -0.07   0.20    -0.15   0.02  -0.11
                      4                      5                      6
                        a                      a                      a 
 Frequencies --   322.1598               432.2605               787.7764
 Red. masses --    99.0000                99.0000                99.0000
 Frc consts  --    99.0000                99.0000                99.0000
 IR Inten    --    99.0000                99.0000                99.0000
 Raman Activ --     0.0000                 0.0000                 0.0000
 Depolar     --     0.0000                 0.0000                 0.0000
 Atom AN      X      Y      Z        X      Y      Z        X      Y      Z
   1   6    -0.35   0.12  -0.03    -0.22   0.10  -0.13    -0.01  -0.00  -0.11
   2   6    -0.18  -0.30   0.00     0.26  -0.17  -0.33     0.14   0.14  -0.13
   3   6     0.18   0.30   0.00     0.26  -0.17   0.33     0.14   0.14   0.13
   4   6     0.35  -0.12  -0.03    -0.22   0.10   0.13    -0.01  -0.00   0.11
   5   1    -0.07  -0.01  -0.01    -0.20   0.06  -0.09    -0.23  -0.15  -0.18
   6   1    -0.26   0.06  -0.03    -0.15   0.04  -0.08     0.01  -0.01   0.19
   7   1    -0.03   0.18   0.02    -0.01   0.10   0.16    -0.01  -0.03   0.12
   8   1    -0.17  -0.06   0.15     0.18  -0.07  -0.21    -0.16   0.07   0.31
   9   1    -0.01  -0.26  -0.02     0.03   0.12  -0.08    -0.04  -0.34  -0.16
  10   1     0.17   0.06   0.15     0.18  -0.07   0.21    -0.16   0.07  -0.31
  11   1     0.01   0.26  -0.02     0.03   0.12   0.08    -0.04  -0.34   0.16
  12   1     0.03  -0.18   0.02    -0.01   0.10  -0.16    -0.01  -0.03  -0.12
  13   1     0.07   0.01  -0.01    -0.20   0.06   0.09    -0.23  -0.15   0.18
  14   1     0.26  -0.06  -0.03    -0.15   0.04   0.08     0.01  -0.01  -0.19
                      7                      8                      9
                        a                      a                      a 
 Frequencies --  1508.2130              1517.0981               831.5375
 Red. masses --    99.0000                99.0000                99.0000
 Frc consts  --    99.0000                99.0000                99.0000
 IR Inten    --    99.0000                99.0000                99.0000
 Raman Activ --     0.0000                 0.0000                 0.0000
 Depolar     --     0.0000                 0.0000                 0.0000
 Atom AN      X      Y      Z        X      Y      Z        X      Y      Z
   1   6     0.11  -0.07  -0.08    -0.02   0.14  -0.06     0.13   0.09   0.06
   2   6     0.03  -0.01  -0.00    -0.01   0.04  -0.01     0.16   0.07  -0.19
   3   6     0.03  -0.01   0.00     0.01  -0.04  -0.01    -0.16  -0.07  -0.19
   4   6     0.11  -0.07   0.08     0.02  -0.14  -0.06    -0.13  -0.09   0.06
   5   1    -0.04   0.41   0.10     0.33  -0.33   0.05    -0.17  -0.15  -0.13
   6   1    -0.32   0.04   0.36    -0.13   0.03  -0.18     0.13   0.01   0.29
   7   1    -0.09  -0.17  -0.14    -0.11  -0.27   0.35     0.00  -0.06   0.12
   8   1    -0.01  -0.00  -0.03     0.01   0.01   0.01     0.00   0.03   0.31
   9   1    -0.02  -0.02  -0.02    -0.00  -0.01  -0.01     0.01  -0.31  -0.15
  10   1    -0.01  -0.00   0.03    -0.01  -0.01   0.01    -0.00  -0.03   0.31
  11   1    -0.02  -0.02   0.02     0.00   0.01  -0.01    -0.01   0.31  -0.15
  12   1    -0.09  -0.17   0.14     0.11   0.27   0.35    -0.00   0.06   0.12
  13   1    -0.04   0.41  -0.10    -0.33   0.33   0.05     0.17   0.15  -0.13
  14   1    -0.32   0.04  -0.36     0.13  -0.03  -0.17    -0.13  -0.01   0.29
                     10                     11                     12
                        a                      a                      a 
 Frequencies --  1503.4482               884.6252              1504.8952
 Red. masses --    99.0000                99.0000                99.0000
 Frc consts  --    99.0000                99.0000                99.0000
 IR Inten    --    99.0000                99.0000                99.0000
 Raman Activ --     0.0000                 0.0000                 0.0000
 Depolar     --     0.0000                 0.0000                 0.0000
 Atom AN      X      Y      Z        X      Y      Z        X      Y      Z
   1   6    -0.04  -0.13   0.06     0.26  -0.07   0.16     0.11  -0.01  -0.06
   2   6     0.01  -0.06  -0.02     0.24  -0.29  -0.17     0.07  -0.09  -0.10
   3   6     0.01  -0.06   0.02    -0.24   0.29  -0.17    -0.07   0.09  -0.10
   4   6    -0.04  -0.13  -0.06    -0.26   0.07   0.16    -0.11   0.01  -0.06
   5   1    -0.28   0.21  -0.06    -0.03   0.10   0.04     0.03   0.23   0.08
   6   1     0.27  -0.05   0.10    -0.15   0.02  -0.12    -0.34   0.05   0.22
   7   1     0.16   0.36  -0.28     0.19   0.17   0.29    -0.12  -0.25  -0.06
   8   1    -0.08   0.01   0.09     0.01  -0.07  -0.15    -0.14   0.02   0.25
   9   1     0.01   0.13   0.04     0.10  -0.02  -0.01    -0.02   0.27   0.04
  10   1    -0.08   0.01  -0.09    -0.01   0.07  -0.15     0.14  -0.02   0.25
  11   1     0.01   0.13  -0.04    -0.10   0.02  -0.01     0.02  -0.27   0.04
  12   1     0.16   0.36   0.28    -0.19  -0.17   0.29     0.12   0.25  -0.06
  13   1    -0.28   0.21   0.06     0.03  -0.10   0.04    -0.03  -0.23   0.07
  14   1     0.27  -0.05  -0.10     0.15  -0.02  -0.12     0.34  -0.05   0.21
                     13                     14                     15
                        a                      a                      a 
 Frequencies --  1493.8432              1490.9361              1188.3036
 Red. masses --    99.0000                99.0000                99.0000
 Frc consts  --    99.0000                99.0000                99.0000
 IR Inten    --    99.0000                99.0000                99.0000
 Raman Activ --     0.0000                 0.0000                 0.0000
 Depolar     --     0.0000                 0.0000                 0.0000
 Atom AN      X      Y      Z        X      Y      Z        X      Y      Z
   1   6     0.05  -0.02  -0.08    -0.03  -0.03   0.02    -0.01   0.24  -0.04
   2   6    -0.01   0.10   0.12    -0.05   0.13   0.14     0.02  -0.44   0.05
   3   6     0.01  -0.10   0.12    -0.05   0.13  -0.14    -0.02   0.44   0.05
   4   6    -0.05   0.02  -0.07    -0.03  -0.03  -0.02     0.01  -0.24  -0.04
   5   1     0.05   0.21   0.08    -0.06   0.05  -0.01    -0.04  -0.13  -0.08
   6   1    -0.22   0.03   0.22     0.09  -0.01   0.02     0.18   0.02   0.23
   7   1    -0.08  -0.15  -0.01     0.05   0.11  -0.06    -0.10  -0.12  -0.07
   8   1     0.16  -0.03  -0.34     0.20  -0.04  -0.42     0.19  -0.14  -0.17
   9   1    -0.02  -0.37  -0.10    -0.02  -0.45  -0.12    -0.02   0.14   0.06
  10   1    -0.16   0.03  -0.35     0.20  -0.04   0.42    -0.19   0.14  -0.17
  11   1     0.02   0.37  -0.10    -0.02  -0.45   0.12     0.02  -0.14   0.06
  12   1     0.08   0.15  -0.01     0.05   0.11   0.06     0.10   0.12  -0.07
  13   1    -0.05  -0.21   0.08    -0.06   0.05   0.01     0.04   0.13  -0.08
  14   1     0.22  -0.03   0.22     0.09  -0.01  -0.02    -0.18  -0.02   0.23
                     16                     17                     18
                        a                      a                      a 
 Frequencies --   981.4178              1145.3493              1017.3930
 Red. masses --    99.0000                99.0000                99.0000
 Frc consts  --    99.0000                99.0000                99.0000
 IR Inten    --    99.0000                99.0000                99.0000
 Raman Activ --     0.0000                 0.0000                 0.0000
 Depolar     --     0.0000                 0.0000                 0.0000
 Atom AN      X      Y      Z        X      Y      Z        X      Y      Z
   1   6    -0.01   0.21   0.01    -0.10   0.11   0.28    -0.05   0.09   0.27
   2   6    -0.08  -0.13   0.00     0.05  -0.06  -0.40    -0.00  -0.04  -0.27
   3   6    -0.08  -0.13  -0.00     0.05  -0.07   0.40    -0.00   0.04  -0.27
   4   6    -0.01   0.21  -0.01    -0.10   0.11  -0.28     0.05  -0.09   0.27
   5   1    -0.03  -0.14  -0.07     0.25   0.04   0.20     0.29   0.06   0.22
   6   1     0.24   0.01   0.30     0.14   0.00   0.01     0.14   0.00  -0.00
   7   1    -0.12  -0.17  -0.12    -0.08  -0.05  -0.20    -0.08  -0.06  -0.26
   8   1     0.38  -0.10   0.09    -0.17   0.01  -0.02    -0.06   0.00  -0.01
   9   1    -0.16   0.10  -0.05     0.03  -0.16  -0.12     0.29  -0.14   0.06
  10   1     0.38  -0.10  -0.09    -0.17   0.01   0.02     0.06  -0.00  -0.01
  11   1    -0.16   0.10   0.05     0.03  -0.16   0.12    -0.29   0.14   0.06
  12   1    -0.12  -0.17   0.12    -0.08  -0.05   0.20     0.08   0.06  -0.26
  13   1    -0.03  -0.14   0.07     0.25   0.04  -0.20    -0.29  -0.06   0.22
  14   1     0.24   0.01  -0.30     0.14   0.00  -0.01    -0.14  -0.00  -0.01
                     19                     20                     21
                        a                      a                      a 
 Frequencies --  1138.4381              1020.6944              1256.3047
 Red. masses --    99.0000                99.0000                99.0000
 Frc consts  --    99.0000                99.0000                99.0000
 IR Inten    --    99.0000                99.0000                99.0000
 Raman Activ --     0.0000                 0.0000                 0.0000
 Depolar     --     0.0000                 0.0000                 0.0000
 Atom AN      X      Y      Z        X      Y      Z        X      Y      Z
   1   6     0.18   0.13   0.18    -0.34  -0.04  -0.23    -0.07  -0.22   0.09
   2   6    -0.43   0.04  -0.17     0.26   0.09   0.16     0.03   0.18  -0.06
   3   6     0.43  -0.04  -0.17     0.26   0.09  -0.17     0.03   0.18   0.06
   4   6    -0.18  -0.13   0.18    -0.34  -0.04   0.23    -0.07  -0.22  -0.09
   5   1    -0.01   0.01   0.01     0.09  -0.03   0.01     0.09   0.12   0.13
   6   1     0.05   0.03   0.13     0.04  -0.03  -0.08    -0.11  -0.03  -0.20
   7   1     0.04   0.02   0.10    -0.15  -0.10  -0.30     0.05   0.09  -0.00
   8   1    -0.25   0.03  -0.18     0.06   0.03   0.09     0.35  -0.00   0.30
   9   1    -0.24   0.08  -0.10     0.25  -0.05   0.12    -0.24  -0.02  -0.16
  10   1     0.25  -0.03  -0.18     0.06   0.03  -0.09     0.35  -0.00  -0.30
  11   1     0.24  -0.08  -0.10     0.25  -0.05  -0.12    -0.24  -0.02   0.16
  12   1    -0.04  -0.02   0.10    -0.15  -0.10   0.30     0.05   0.09   0.00
  13   1     0.02  -0.01   0.01     0.08  -0.03  -0.01     0.09   0.12  -0.13
  14   1    -0.05  -0.03   0.13     0.04  -0.03   0.08    -0.11  -0.03   0.20
                     22                     23                     24
                        a                      a                      a 
 Frequencies --  1276.8593              1356.6044              1350.2874
 Red. masses --    99.0000                99.0000                99.0000
 Frc consts  --    99.0000                99.0000                99.0000
 IR Inten    --    99.0000                99.0000                99.0000
 Raman Activ --     0.0000                 0.0000                 0.0000
 Depolar     --     0.0000                 0.0000                 0.0000
 Atom AN      X      Y      Z        X      Y      Z        X      Y      Z
   1   6     0.09   0.07  -0.16     0.08  -0.07  -0.04    -0.04   0.04   0.06
   2   6    -0.06   0.08   0.11    -0.40   0.02  -0.11     0.28  -0.05   0.23
   3   6     0.06  -0.08   0.11     0.40  -0.02  -0.11     0.27  -0.05  -0.23
   4   6    -0.09  -0.07  -0.16    -0.08   0.07  -0.04    -0.04   0.04  -0.06
   5   1    -0.13  -0.06  -0.13    -0.01   0.06   0.01    -0.04  -0.05  -0.02
   6   1    -0.00   0.02   0.10    -0.05  -0.01   0.05    -0.02   0.01  -0.09
   7   1     0.01  -0.02   0.08     0.06   0.04   0.12    -0.07  -0.07  -0.14
   8   1    -0.30   0.06  -0.14     0.43  -0.08   0.19    -0.23   0.03  -0.13
   9   1     0.44  -0.02   0.27     0.20   0.02   0.14    -0.45   0.11  -0.20
  10   1     0.30  -0.06  -0.14    -0.43   0.08   0.19    -0.23   0.03   0.13
  11   1    -0.44   0.02   0.27    -0.20  -0.02   0.14    -0.45   0.11   0.20
  12   1    -0.01   0.02   0.08    -0.06  -0.04   0.12    -0.07  -0.07   0.14
  13   1     0.13   0.06  -0.13     0.01  -0.06   0.01    -0.04  -0.05   0.02
  14   1     0.00  -0.02   0.10     0.05   0.01   0.05    -0.02   0.01   0.09
                     25                     26                     27
                        a                      a                      a 
 Frequencies --  1414.6655              1415.0402              2962.7549
 Red. masses --    99.0000                99.0000                99.0000
 Frc consts  --    99.0000                99.0000                99.0000
 IR Inten    --    99.0000                99.0000                99.0000
 Raman Activ --     0.0000                 0.0000                 0.0000
 Depolar     --     0.0000                 0.0000                 0.0000
 Atom AN      X      Y      Z        X      Y      Z        X      Y      Z
   1   6     0.19   0.06   0.23     0.19   0.08   0.23     0.01   0.01  -0.01
   2   6    -0.07   0.02  -0.07    -0.06   0.01  -0.00    -0.07  -0.16   0.10
   3   6    -0.07   0.02   0.07     0.05  -0.01  -0.00     0.07   0.16   0.10
   4   6     0.20   0.06  -0.23    -0.19  -0.08   0.22    -0.01  -0.01  -0.01
   5   1    -0.30  -0.10  -0.16    -0.28  -0.15  -0.17    -0.02  -0.01   0.04
   6   1    -0.21   0.04  -0.27    -0.23   0.05  -0.31    -0.01  -0.04  -0.00
   7   1    -0.08  -0.14  -0.31    -0.11  -0.18  -0.28    -0.01   0.01  -0.00
   8   1     0.07  -0.01   0.02     0.08  -0.02  -0.03     0.08   0.53  -0.01
   9   1     0.11  -0.04   0.04     0.03  -0.06   0.00     0.19   0.07  -0.35
  10   1     0.07  -0.01  -0.02    -0.08   0.02  -0.03    -0.08  -0.54  -0.01
  11   1     0.11  -0.05  -0.04    -0.03   0.06   0.00    -0.19  -0.07  -0.35
  12   1    -0.09  -0.15   0.32     0.10   0.18  -0.27     0.01  -0.01  -0.00
  13   1    -0.30  -0.10   0.16     0.28   0.15  -0.17     0.02   0.01   0.04
  14   1    -0.22   0.04   0.27     0.23  -0.04  -0.30     0.01   0.04  -0.00
                     28                     29                     30
                        a                      a                      a 
 Frequencies --  2965.0975              3029.3663              2981.0701
 Red. masses --    99.0000                99.0000                99.0000
 Frc consts  --    99.0000                99.0000                99.0000
 IR Inten    --    99.0000                99.0000                99.0000
 Raman Activ --     0.0000                 0.0000                 0.0000
 Depolar     --     0.0000                 0.0000                 0.0000
 Atom AN      X      Y      Z        X      Y      Z        X      Y      Z
   1   6    -0.01  -0.01   0.01    -0.04   0.20   0.00    -0.01   0.03  -0.00
   2   6     0.09   0.10  -0.14    -0.00   0.02   0.00    -0.00  -0.15  -0.04
   3   6     0.09   0.10   0.14     0.00  -0.02   0.00     0.01  -0.16   0.05
   4   6    -0.01  -0.01  -0.01     0.04  -0.20   0.00    -0.01   0.03  -0.00
   5   1     0.02   0.01  -0.05    -0.02   0.02   0.02    -0.00   0.01  -0.00
   6   1     0.00   0.05   0.00    -0.09  -0.61   0.00    -0.01  -0.09   0.00
   7   1     0.01  -0.01   0.00     0.24  -0.10  -0.03     0.04  -0.02  -0.01
   8   1    -0.03  -0.22  -0.01    -0.01  -0.05   0.00     0.11   0.60  -0.03
   9   1    -0.30  -0.14   0.54     0.01   0.01  -0.01    -0.10  -0.07   0.17
  10   1    -0.03  -0.22   0.01     0.01   0.05   0.00     0.12   0.65   0.04
  11   1    -0.30  -0.13  -0.54    -0.01  -0.01  -0.01    -0.13  -0.09  -0.23
  12   1     0.01  -0.01  -0.00    -0.24   0.10  -0.03     0.05  -0.02   0.01
  13   1     0.02   0.01   0.05     0.02  -0.02   0.02     0.00   0.01   0.01
  14   1     0.01   0.05  -0.00     0.09   0.61   0.00    -0.02  -0.09  -0.00
                     31                     32                     33
                        a                      a                      a 
 Frequencies --  2981.2231              3031.8322              3034.0696
 Red. masses --    99.0000                99.0000                99.0000
 Frc consts  --    99.0000                99.0000                99.0000
 IR Inten    --    99.0000                99.0000                99.0000
 Raman Activ --     0.0000                 0.0000                 0.0000
 Depolar     --     0.0000                 0.0000                 0.0000
 Atom AN      X      Y      Z        X      Y      Z        X      Y      Z
   1   6     0.02  -0.01  -0.01    -0.08   0.18   0.03    -0.15  -0.07   0.07
   2   6    -0.05   0.08   0.12     0.00   0.03   0.00    -0.01  -0.01   0.01
   3   6     0.05  -0.06   0.12     0.00   0.03  -0.00    -0.01  -0.02  -0.01
   4   6    -0.02   0.01  -0.01    -0.09   0.18  -0.03    -0.16  -0.07  -0.08
   5   1    -0.02  -0.02   0.04     0.02   0.05  -0.07     0.10   0.07  -0.22
   6   1     0.01   0.03  -0.00    -0.09  -0.52   0.01     0.03   0.39   0.01
   7   1    -0.05   0.02   0.00     0.36  -0.17  -0.04     0.39  -0.22  -0.03
   8   1    -0.08  -0.45   0.04    -0.02  -0.11   0.01     0.00   0.04  -0.00
   9   1     0.27   0.14  -0.47     0.01   0.01  -0.01     0.02   0.01  -0.04
  10   1     0.07   0.37   0.03    -0.02  -0.11  -0.01     0.00   0.04   0.00
  11   1    -0.25  -0.13  -0.45     0.01   0.01   0.01     0.03   0.01   0.04
  12   1     0.04  -0.02   0.00     0.36  -0.17   0.04     0.44  -0.25   0.04
  13   1     0.02   0.01   0.04     0.02   0.05   0.07     0.10   0.07   0.24
  14   1    -0.01  -0.02  -0.00    -0.09  -0.52  -0.01     0.04   0.42  -0.01
                     34                     35                     36
                        a                      a                      a 
 Frequencies --  3034.2066              3050.2983              3044.1552
 Red. masses --    99.0000                99.0000                99.0000
 Frc consts  --    99.0000                99.0000                99.0000
 IR Inten    --    99.0000                99.0000                99.0000
 Raman Activ --     0.0000                 0.0000                 0.0000
 Depolar     --     0.0000                 0.0000                 0.0000
 Atom AN      X      Y      Z        X      Y      Z        X      Y      Z
   1   6     0.18   0.01  -0.06    -0.04  -0.04   0.15    -0.00  -0.05   0.13
   2   6     0.01   0.00  -0.01    -0.01  -0.01   0.02    -0.00  -0.01   0.01
   3   6    -0.01  -0.00  -0.01     0.01   0.01   0.02    -0.00  -0.01  -0.01
   4   6    -0.16  -0.00  -0.05     0.04   0.04   0.15    -0.00  -0.05  -0.13
   5   1    -0.05  -0.05   0.15     0.28   0.18  -0.57     0.27   0.17  -0.54
   6   1    -0.01  -0.28  -0.01    -0.02  -0.09   0.02    -0.02  -0.12   0.02
   7   1    -0.56   0.30   0.05    -0.13   0.06   0.03    -0.24   0.12   0.04
   8   1     0.00  -0.00  -0.00     0.00   0.01   0.00     0.00   0.01   0.00
   9   1    -0.03  -0.01   0.05     0.03   0.01  -0.05     0.02   0.01  -0.02
  10   1    -0.00  -0.00  -0.00    -0.00  -0.01   0.00     0.00   0.01  -0.00
  11   1     0.03   0.01   0.05    -0.03  -0.01  -0.05     0.02   0.01   0.02
  12   1     0.51  -0.28   0.05     0.13  -0.06   0.03    -0.24   0.12  -0.04
  13   1     0.04   0.04   0.12    -0.29  -0.18  -0.57     0.27   0.17   0.54
  14   1     0.01   0.25  -0.01     0.02   0.09   0.02    -0.02  -0.12  -0.02
