      -----------------------------------------------------------      
     |                   =====================                   |     
     |                           x T B                           |     
     |                   =====================                   |     
     |                         S. Grimme                         |     
     |          Mulliken Center for Theoretical Chemistry        |     
     |                    University of Bonn                     |     
      -----------------------------------------------------------      

   * xtb version 6.6.1 (8d0f1dd) compiled by 'stahn@M-Bot' on 2023-08-01

   xtb is free software: you can redistribute it and/or modify it under
   the terms of the GNU Lesser General Public License as published by
   the Free Software Foundation, either version 3 of the License, or
   (at your option) any later version.
   
   xtb is distributed in the hope that it will be useful,
   but WITHOUT ANY WARRANTY; without even the implied warranty of
   MERCHANTABILITY or FITNESS FOR A PARTICULAR PURPOSE.  See the
   GNU Lesser General Public License for more details.
   
   Cite this work as:
   * C. Bannwarth, E. Caldeweyher, S. Ehlert, A. Hansen, P. Pracht,
     J. Seibert, S. Spicher, S. Grimme, WIREs Comput. Mol. Sci., 2020, 11,
     e01493. DOI: 10.1002/wcms.1493
   
   for GFN2-xTB:
   * C. Bannwarth, S. Ehlert and S. Grimme., J. Chem. Theory Comput., 2019,
     15, 1652-1671. DOI: 10.1021/acs.jctc.8b01176
   for GFN1-xTB:
   * S. Grimme, C. Bannwarth, P. Shushkov, J. Chem. Theory Comput., 2017,
     13, 1989-2009. DOI: 10.1021/acs.jctc.7b00118
   for GFN0-xTB:
   * P. Pracht, E. Caldeweyher, S. Ehlert, S. Grimme, ChemRxiv, 2019, preprint.
     DOI: 10.26434/chemrxiv.8326202.v1
   for GFN-FF:
   * S. Spicher and S. Grimme, Angew. Chem. Int. Ed., 2020, 59, 15665-15673.
     DOI: 10.1002/anie.202004239
   
   for ALPB and GBSA implicit solvation:
   * S. Ehlert, M. Stahn, S. Spicher, S. Grimme, J. Chem. Theory Comput.,
     2021, 17, 4250-4261. DOI: 10.1021/acs.jctc.1c00471
   
   for DFT-D4:
   * E. Caldeweyher, C. Bannwarth and S. Grimme, J. Chem. Phys., 2017,
     147, 034112. DOI: 10.1063/1.4993215
   * E. Caldeweyher, S. Ehlert, A. Hansen, H. Neugebauer, S. Spicher,
     C. Bannwarth and S. Grimme, J. Chem. Phys., 2019, 150, 154122.
     DOI: 10.1063/1.5090222
   * E. Caldeweyher, J.-M. Mewes, S. Ehlert and S. Grimme, Phys. Chem. Chem. Phys.
     2020, 22, 8499-8512. DOI: 10.1039/D0CP00502A
   
   for sTDA-xTB:
   * S. Grimme and C. Bannwarth, J. Chem. Phys., 2016, 145, 054103.
     DOI: 10.1063/1.4959605
   
   in the mass-spec context:
   * V. Asgeirsson, C. Bauer and S. Grimme, Chem. Sci., 2017, 8, 4879.
     DOI: 10.1039/c7sc00601b
   * J. Koopman and S. Grimme, ACS Omega 2019, 4, 12, 15120-15133.
     DOI: 10.1021/acsomega.9b02011
   
   for metadynamics refer to:
   * S. Grimme, J. Chem. Theory Comput., 2019, 155, 2847-2862
     DOI: 10.1021/acs.jctc.9b00143
   
   for SPH calculations refer to:
   * S. Spicher and S. Grimme, J. Chem. Theory Comput., 2021, 17, 1701-1714
     DOI: 10.1021/acs.jctc.0c01306
   
   with help from (in alphabetical order)
   P. Atkinson, C. Bannwarth, F. Bohle, G. Brandenburg, E. Caldeweyher
   M. Checinski, S. Dohm, S. Ehlert, S. Ehrlich, I. Gerasimov, C. Hölzer
   A. Katbashev, J. Koopman, C. Lavigne, S. Lehtola, F. März, M. Müller,
   F. Musil, H. Neugebauer, J. Pisarek, C. Plett, P. Pracht, F. Pultar,
   J. Seibert, P. Shushkov, S. Spicher, M. Stahn, M. Steiner, T. Strunk,
   J. Stückrath, T. Rose, and J. Unsleber
   
 * started run on 2024/04/17 at 11:33:28.222     

           -------------------------------------------------
          |                Calculation Setup                |
           -------------------------------------------------

          program call               : xtb 2.xyz --gfn 2 --ohess -P 4
          coordinate file            : 2.xyz
          omp threads                :                     4

   ID    Z sym.   atoms
    1    6 C      1-4
    2    1 H      5-14

           -------------------------------------------------
          |                 G F N 2 - x T B                 |
           -------------------------------------------------

        Reference                      10.1021/acs.jctc.8b01176
      * Hamiltonian:
        H0-scaling (s, p, d)           1.850000    2.230000    2.230000
        zeta-weighting                 0.500000
      * Dispersion:
        s8                             2.700000
        a1                             0.520000
        a2                             5.000000
        s9                             5.000000
      * Repulsion:
        kExp                           1.500000    1.000000
        rExp                           1.000000
      * Coulomb:
        alpha                          2.000000
        third order                    shell-resolved
        anisotropic                    true
        a3                             3.000000
        a5                             4.000000
        cn-shift                       1.200000
        cn-exp                         4.000000
        max-rad                        5.000000


          ...................................................
          :                      SETUP                      :
          :.................................................:
          :  # basis functions                  26          :
          :  # atomic orbitals                  26          :
          :  # shells                           18          :
          :  # electrons                        26          :
          :  max. iterations                   250          :
          :  Hamiltonian                  GFN2-xTB          :
          :  restarted?                      false          :
          :  GBSA solvation                  false          :
          :  PC potential                    false          :
          :  electronic temp.          300.0000000     K    :
          :  accuracy                    1.0000000          :
          :  -> integral cutoff          0.2500000E+02      :
          :  -> integral neglect         0.1000000E-07      :
          :  -> SCF convergence          0.1000000E-05 Eh   :
          :  -> wf. convergence          0.1000000E-03 e    :
          :  Broyden damping             0.4000000          :
          ...................................................

 iter      E             dE          RMSdq      gap      omega  full diag
   1    -13.8267989 -0.138268E+02  0.248E+00   14.27       0.0  T
   2    -13.8673447 -0.405458E-01  0.124E+00   13.97       1.0  T
   3    -13.8677163 -0.371597E-03  0.678E-01   13.96       1.0  T
   4    -13.8678353 -0.118990E-03  0.899E-02   13.95       1.0  T
   5    -13.8678397 -0.443722E-05  0.480E-02   13.95       1.0  T
   6    -13.8678403 -0.560836E-06  0.299E-03   13.95       8.9  T
   7    -13.8678403 -0.114842E-07  0.630E-04   13.95      42.4  T
   8    -13.8678403 -0.513738E-09  0.160E-04   13.95     167.4  T

   *** convergence criteria satisfied after 8 iterations ***

         #    Occupation            Energy/Eh            Energy/eV
      -------------------------------------------------------------
         1        2.0000           -0.6169915             -16.7892
       ...           ...                  ...                  ...
         7        2.0000           -0.4840999             -13.1730
         8        2.0000           -0.4674352             -12.7196
         9        2.0000           -0.4614106             -12.5556
        10        2.0000           -0.4485686             -12.2062
        11        2.0000           -0.4272117             -11.6250
        12        2.0000           -0.4221194             -11.4865
        13        2.0000           -0.4216910             -11.4748 (HOMO)
        14                          0.0909405               2.4746 (LUMO)
        15                          0.1068117               2.9065
        16                          0.1295461               3.5251
        17                          0.1401241               3.8130
        18                          0.1452668               3.9529
       ...                                ...                  ...
        26                          0.2900163               7.8917
      -------------------------------------------------------------
                  HL-Gap            0.5126315 Eh           13.9494 eV
             Fermi-level           -0.1653753 Eh           -4.5001 eV

 SCC (total)                   0 d,  0 h,  0 min,  0.024 sec
 SCC setup                      ...        0 min,  0.000 sec (  0.566%)
 Dispersion                     ...        0 min,  0.000 sec (  0.430%)
 classical contributions        ...        0 min,  0.000 sec (  0.054%)
 integral evaluation            ...        0 min,  0.000 sec (  1.772%)
 iterations                     ...        0 min,  0.023 sec ( 93.809%)
 molecular gradient             ...        0 min,  0.001 sec (  2.936%)
 printout                       ...        0 min,  0.000 sec (  0.293%)

         :::::::::::::::::::::::::::::::::::::::::::::::::::::
         ::                     SUMMARY                     ::
         :::::::::::::::::::::::::::::::::::::::::::::::::::::
         :: total energy             -13.663348365525 Eh    ::
         :: gradient norm              0.019561856205 Eh/a0 ::
         :: HOMO-LUMO gap             13.949412450892 eV    ::
         ::.................................................::
         :: SCC energy               -13.867840302552 Eh    ::
         :: -> isotropic ES            0.002787375081 Eh    ::
         :: -> anisotropic ES          0.005226836930 Eh    ::
         :: -> anisotropic XC          0.008953355555 Eh    ::
         :: -> dispersion             -0.006302144085 Eh    ::
         :: repulsion energy           0.204484568412 Eh    ::
         :: add. restraining           0.000000000000 Eh    ::
         :: total charge               0.000000000000 e     ::
         :::::::::::::::::::::::::::::::::::::::::::::::::::::

      ----------------------------------------------------------- 
     |                   =====================                   |
     |                        A N C O P T                        |
     |                   =====================                   |
     |               Approximate Normal Coordinate               |
     |                Rational Function Optimizer                |
      ----------------------------------------------------------- 

          ...................................................
          :                      SETUP                      :
          :.................................................:
          :   optimization level            normal          :
          :   max. optcycles                   200          :
          :   ANC micro-cycles                  20          :
          :   degrees of freedom                36          :
          :.................................................:
          :   RF solver                   davidson          :
          :   write xtbopt.log                true          :
          :   linear?                        false          :
          :   energy convergence         0.5000000E-05 Eh   :
          :   grad. convergence          0.1000000E-02 Eh/α :
          :   maxmium RF displ.          2.0000000          :
          :   Hlow (freq-cutoff)         0.2000000E-01      :
          :   Hmax (freq-cutoff)         5.0000000          :
          :   S6 in model hess.         70.0000000          :
          ...................................................

generating ANC from model Hessian ...
Using Lindh-Hessian (1995)
 Shifting diagonal of input Hessian by   1.363736821926874E-002
 Lowest  eigenvalues of input Hessian
    0.000000    0.000000    0.000000    0.000000    0.000000    0.000000
    0.020000    0.025543    0.025778    0.032101    0.036401    0.057545
    0.062004    0.065621    0.066321    0.068551    0.070796    0.075362
 Highest eigenvalues
    1.115315    1.136086    1.146257    1.202138    1.259878    1.284553
 

........................................................................
.............................. CYCLE    1 ..............................
........................................................................

 iter      E             dE          RMSdq      gap      omega  full diag
   1    -13.8678403 -0.138678E+02  0.174E-05   13.95       0.0  T
   2    -13.8678403 -0.941469E-12  0.765E-06   13.95    3495.4  T
   3    -13.8678403 -0.213163E-13  0.299E-06   13.95    8945.2  T
     SCC iter.                  ...        0 min,  0.001 sec
     gradient                   ...        0 min,  0.001 sec
 * total energy  :   -13.6633484 Eh     change       -0.5748291E-11 Eh
   gradient norm :     0.0195617 Eh/α   predicted     0.0000000E+00 (-100.00%)
   displ. norm   :     0.1117051 α      lambda       -0.1169307E-02
   maximum displ.:     0.0832853 α      in ANC's #10, #14, #12, ...

........................................................................
.............................. CYCLE    2 ..............................
........................................................................

 iter      E             dE          RMSdq      gap      omega  full diag
   1    -13.8725832 -0.138726E+02  0.139E-01   14.23       0.0  T
   2    -13.8725857 -0.245898E-05  0.799E-02   14.23       1.0  T
   3    -13.8725859 -0.245149E-06  0.494E-03   14.23       5.4  T
   4    -13.8725860 -0.235641E-07  0.114E-03   14.23      23.5  T
   5    -13.8725860 -0.838552E-09  0.607E-04   14.23      44.0  T
   6    -13.8725860 -0.121334E-09  0.606E-05   14.23     440.8  T
     SCC iter.                  ...        0 min,  0.001 sec
     gradient                   ...        0 min,  0.001 sec
 * total energy  :   -13.6640735 Eh     change       -0.7250873E-03 Eh
   gradient norm :     0.0087894 Eh/α   predicted    -0.5919508E-03 ( -18.36%)
   displ. norm   :     0.0403269 α      lambda       -0.1493831E-03
   maximum displ.:     0.0205053 α      in ANC's #3, #10, #14, ...

........................................................................
.............................. CYCLE    3 ..............................
........................................................................

 iter      E             dE          RMSdq      gap      omega  full diag
   1    -13.8749353 -0.138749E+02  0.433E-02   14.27       0.0  T
   2    -13.8749365 -0.123809E-05  0.242E-02   14.27       1.1  T
   3    -13.8749365 -0.251273E-07  0.461E-03   14.27       5.8  T
   4    -13.8749365 -0.859592E-08  0.492E-04   14.27      54.3  T
   5    -13.8749365 -0.505676E-09  0.272E-04   14.27      98.3  T
     SCC iter.                  ...        0 min,  0.001 sec
     gradient                   ...        0 min,  0.001 sec
 * total energy  :   -13.6641571 Eh     change       -0.8366323E-04 Eh
   gradient norm :     0.0020350 Eh/α   predicted    -0.7481123E-04 ( -10.58%)
   displ. norm   :     0.0172503 α      lambda       -0.1171251E-04
   maximum displ.:     0.0130415 α      in ANC's #3, #4, #1, ...

........................................................................
.............................. CYCLE    4 ..............................
........................................................................

 iter      E             dE          RMSdq      gap      omega  full diag
   1    -13.8751746 -0.138752E+02  0.610E-03   14.27       0.0  T
   2    -13.8751746 -0.567625E-07  0.364E-03   14.27       7.3  T
   3    -13.8751746 -0.666621E-09  0.109E-03   14.27      24.4  T
   4    -13.8751746 -0.175239E-09  0.115E-04   14.27     232.1  T
   5    -13.8751746 -0.307381E-10  0.518E-05   14.27     516.4  T
     SCC iter.                  ...        0 min,  0.001 sec
     gradient                   ...        0 min,  0.001 sec
 * total energy  :   -13.6641654 Eh     change       -0.8307346E-05 Eh
   gradient norm :     0.0004612 Eh/α   predicted    -0.5858044E-05 ( -29.48%)
   displ. norm   :     0.0386480 α      lambda       -0.8103892E-05
   maximum displ.:     0.0280561 α      in ANC's #3, #4, #1, ...

........................................................................
.............................. CYCLE    5 ..............................
........................................................................

 iter      E             dE          RMSdq      gap      omega  full diag
   1    -13.8751231 -0.138751E+02  0.116E-02   14.25       0.0  T
   2    -13.8751231 -0.305131E-07  0.705E-03   14.25       3.8  T
   3    -13.8751231 -0.271370E-08  0.541E-04   14.25      49.4  T
   4    -13.8751231 -0.604187E-09  0.222E-04   14.25     120.5  T
     SCC iter.                  ...        0 min,  0.001 sec
     gradient                   ...        0 min,  0.001 sec
 * total energy  :   -13.6641720 Eh     change       -0.6585437E-05 Eh
   gradient norm :     0.0015906 Eh/α   predicted    -0.4053560E-05 ( -38.45%)
   displ. norm   :     0.0203533 α      lambda       -0.3272005E-05
   maximum displ.:     0.0139611 α      in ANC's #4, #3, #1, ...

........................................................................
.............................. CYCLE    6 ..............................
........................................................................

 iter      E             dE          RMSdq      gap      omega  full diag
   1    -13.8749830 -0.138750E+02  0.661E-03   14.25       0.0  T
   2    -13.8749830 -0.157953E-07  0.393E-03   14.25       6.8  T
   3    -13.8749830 -0.600256E-09  0.431E-04   14.25      62.0  T
   4    -13.8749830 -0.123897E-09  0.105E-04   14.25     254.9  T
     SCC iter.                  ...        0 min,  0.001 sec
     gradient                   ...        0 min,  0.001 sec
 * total energy  :   -13.6641757 Eh     change       -0.3661276E-05 Eh
   gradient norm :     0.0007934 Eh/α   predicted    -0.1636695E-05 ( -55.30%)
   displ. norm   :     0.0216805 α      lambda       -0.2022526E-05
   maximum displ.:     0.0170623 α      in ANC's #4, #3, #1, ...

   *** GEOMETRY OPTIMIZATION CONVERGED AFTER 6 ITERATIONS ***

------------------------------------------------------------------------
 total energy gain   :        -0.0008273 Eh       -0.5191 kcal/mol
 total RMSD          :         0.0488128 a0        0.0258 Å
 total power (kW/mol):        -0.3620146 (step)  -26.0787 (real)
------------------------------------------------------------------------

 ANCopt (total)                0 d,  0 h,  0 min,  0.083 sec
 optimizer setup                ...        0 min,  0.001 sec (  0.885%)
 model hessian                  ...        0 min,  0.004 sec (  4.680%)
 ANC generation                 ...        0 min,  0.000 sec (  0.337%)
 coordinate transformation      ...        0 min,  0.000 sec (  0.091%)
 single point calculation       ...        0 min,  0.012 sec ( 13.960%)
 optimization log               ...        0 min,  0.065 sec ( 78.353%)
 hessian update                 ...        0 min,  0.000 sec (  0.079%)
 rational function              ...        0 min,  0.000 sec (  0.564%)

================
 final structure:
================
14
 xtb: 6.6.1 (8d0f1dd)
C           -1.56969309988335       -0.03366224351850       -0.56813795138023
C           -0.67297548094779        0.36287991385685        0.59979956264366
C            0.67297321942673       -0.36316318950769        0.59959408338115
C            1.56963119485269        0.03386203958924       -0.56821727403398
H           -1.12689490619333        0.25716500229467       -1.51695551204445
H           -1.72894629646776       -1.10991788292425       -0.57677813470850
H           -2.53761412995168        0.45531494124671       -0.48301641467249
H           -0.49961931279229        1.44113964877284        0.57373092462515
H           -1.19149389120916        0.13457367522032        1.53419557655818
H            0.49956882511659       -1.44140619339745        0.57303962759640
H            1.19156612017946       -0.13531440821950        1.53406117968196
H            2.53715673037789       -0.45604982550054       -0.48394272148282
H            1.12625093257584       -0.25557760318941       -1.51718568105324
H            1.72981209491616        1.10998712527671       -0.57577426511080
           -------------------------------------------------
          |                Final Singlepoint                |
           -------------------------------------------------

          ...................................................
          :                      SETUP                      :
          :.................................................:
          :  # basis functions                  26          :
          :  # atomic orbitals                  26          :
          :  # shells                           18          :
          :  # electrons                        26          :
          :  max. iterations                   250          :
          :  Hamiltonian                  GFN2-xTB          :
          :  restarted?                      false          :
          :  GBSA solvation                  false          :
          :  PC potential                    false          :
          :  electronic temp.          300.0000000     K    :
          :  accuracy                    1.0000000          :
          :  -> integral cutoff          0.2500000E+02      :
          :  -> integral neglect         0.1000000E-07      :
          :  -> SCF convergence          0.1000000E-05 Eh   :
          :  -> wf. convergence          0.1000000E-03 e    :
          :  Broyden damping             0.4000000          :
          ...................................................

 iter      E             dE          RMSdq      gap      omega  full diag
   1    -13.8749830 -0.138750E+02  0.435E-05   14.25       0.0  T
   2    -13.8749830 -0.174971E-11  0.230E-05   14.25    1164.1  T
   3    -13.8749830 -0.197176E-12  0.576E-06   14.25    4636.5  T

   *** convergence criteria satisfied after 3 iterations ***

         #    Occupation            Energy/Eh            Energy/eV
      -------------------------------------------------------------
         1        2.0000           -0.6177338             -16.8094
       ...           ...                  ...                  ...
         7        2.0000           -0.4849527             -13.1962
         8        2.0000           -0.4663624             -12.6904
         9        2.0000           -0.4618400             -12.5673
        10        2.0000           -0.4481309             -12.1943
        11        2.0000           -0.4258809             -11.5888
        12        2.0000           -0.4234445             -11.5225
        13        2.0000           -0.4221986             -11.4886 (HOMO)
        14                          0.1014568               2.7608 (LUMO)
        15                          0.1108261               3.0157
        16                          0.1371889               3.7331
        17                          0.1488809               4.0513
        18                          0.1499140               4.0794
       ...                                ...                  ...
        26                          0.2999023               8.1608
      -------------------------------------------------------------
                  HL-Gap            0.5236554 Eh           14.2494 eV
             Fermi-level           -0.1603709 Eh           -4.3639 eV

 SCC (total)                   0 d,  0 h,  0 min,  0.002 sec
 SCC setup                      ...        0 min,  0.000 sec (  2.672%)
 Dispersion                     ...        0 min,  0.000 sec (  1.298%)
 classical contributions        ...        0 min,  0.000 sec (  0.418%)
 integral evaluation            ...        0 min,  0.000 sec (  9.645%)
 iterations                     ...        0 min,  0.001 sec ( 41.098%)
 molecular gradient             ...        0 min,  0.001 sec ( 28.967%)
 printout                       ...        0 min,  0.000 sec ( 14.297%)

         :::::::::::::::::::::::::::::::::::::::::::::::::::::
         ::                     SUMMARY                     ::
         :::::::::::::::::::::::::::::::::::::::::::::::::::::
         :: total energy             -13.664175670127 Eh    ::
         :: gradient norm              0.000793388670 Eh/a0 ::
         :: HOMO-LUMO gap             14.249389899660 eV    ::
         ::.................................................::
         :: SCC energy               -13.874983019579 Eh    ::
         :: -> isotropic ES            0.002975453511 Eh    ::
         :: -> anisotropic ES          0.004972533192 Eh    ::
         :: -> anisotropic XC          0.008995617035 Eh    ::
         :: -> dispersion             -0.006301821434 Eh    ::
         :: repulsion energy           0.210800240467 Eh    ::
         :: add. restraining           0.000000000000 Eh    ::
         :: total charge              -0.000000000000 e     ::
         :::::::::::::::::::::::::::::::::::::::::::::::::::::

           ------------------------------------------------- 
          |                Numerical Hessian                |
           ------------------------------------------------- 
step length          :   0.00500
SCC accuracy         :   0.30000
Hessian scale factor :   1.00000
frozen atoms in %    :   0.00000    0
RMS gradient         :   0.00079
estimated CPU  time      0.02 min
estimated wall time      0.00 min

writing file <hessian>.

 projected vibrational frequencies (cm⁻¹)
eigval :       -0.00    -0.00    -0.00    -0.00     0.00     0.00
eigval :       96.45   200.49   258.49   322.16   432.26   787.78
eigval :      831.54   884.63   981.42  1017.39  1020.69  1138.44
eigval :     1145.35  1188.30  1256.30  1276.86  1350.29  1356.60
eigval :     1414.67  1415.04  1490.94  1493.84  1503.45  1504.90
eigval :     1508.21  1517.10  2962.75  2965.10  2981.07  2981.22
eigval :     3029.37  3031.83  3034.07  3034.21  3044.16  3050.30
           -------------------------------------------------
          |                Property Printout                |
           -------------------------------------------------

    * Orbital Energies and Occupations

         #    Occupation            Energy/Eh            Energy/eV
      -------------------------------------------------------------
         1        2.0000           -0.6177338             -16.8094
         2        2.0000           -0.5960097             -16.2182
         3        2.0000           -0.5731545             -15.5963
         4        2.0000           -0.5474433             -14.8967
         5        2.0000           -0.5064099             -13.7801
         6        2.0000           -0.5059109             -13.7665
         7        2.0000           -0.4849527             -13.1962
         8        2.0000           -0.4663624             -12.6904
         9        2.0000           -0.4618399             -12.5673
        10        2.0000           -0.4481309             -12.1943
        11        2.0000           -0.4258809             -11.5888
        12        2.0000           -0.4234445             -11.5225
        13        2.0000           -0.4221986             -11.4886 (HOMO)
        14                          0.1014568               2.7608 (LUMO)
        15                          0.1108261               3.0157
        16                          0.1371888               3.7331
        17                          0.1488809               4.0513
        18                          0.1499140               4.0794
        19                          0.1576092               4.2888
        20                          0.2027354               5.5167
        21                          0.2065331               5.6201
        22                          0.2348376               6.3903
        23                          0.2486725               6.7667
        24                          0.2784811               7.5779
       ...                                ...                  ...
        26                          0.2999023               8.1608
      -------------------------------------------------------------
                  HL-Gap            0.5236554 Eh           14.2494 eV
             Fermi-level           -0.1603709 Eh           -4.3639 eV

     #   Z          covCN         q      C6AA      α(0)
     1   6 C        3.751    -0.101    22.494     6.764
     2   6 C        3.800    -0.053    21.519     6.605
     3   6 C        3.800    -0.053    21.519     6.605
     4   6 C        3.751    -0.101    22.494     6.764
     5   1 H        0.925     0.035     2.511     2.478
     6   1 H        0.925     0.033     2.550     2.497
     7   1 H        0.925     0.030     2.585     2.514
     8   1 H        0.924     0.030     2.592     2.518
     9   1 H        0.924     0.026     2.643     2.542
    10   1 H        0.924     0.030     2.592     2.518
    11   1 H        0.924     0.026     2.643     2.542
    12   1 H        0.925     0.030     2.585     2.514
    13   1 H        0.925     0.035     2.511     2.478
    14   1 H        0.925     0.033     2.550     2.497

 Mol. C6AA /au·bohr⁶  :       1208.157754
 Mol. C8AA /au·bohr⁸  :      24486.916960
 Mol. α(0) /au        :         51.835939


Wiberg/Mayer (AO) data.
largest (>0.10) Wiberg bond orders for each atom

 ---------------------------------------------------------------------------
     #   Z sym  total        # sym  WBO       # sym  WBO       # sym  WBO
 ---------------------------------------------------------------------------
     1   6 C    3.997 --     2 C    1.020     6 H    0.988     7 H    0.988
                             5 H    0.986
     2   6 C    3.998 --     1 C    1.020     3 C    1.008     9 H    0.979
                             8 H    0.978
     3   6 C    3.998 --     4 C    1.020     2 C    1.008    11 H    0.979
                            10 H    0.978
     4   6 C    3.997 --     3 C    1.020    14 H    0.988    12 H    0.988
                            13 H    0.986
     5   1 H    0.999 --     1 C    0.986
     6   1 H    0.999 --     1 C    0.988
     7   1 H    0.999 --     1 C    0.988
     8   1 H    0.999 --     2 C    0.978
     9   1 H    0.999 --     2 C    0.979
    10   1 H    0.999 --     3 C    0.978
    11   1 H    0.999 --     3 C    0.979
    12   1 H    0.999 --     4 C    0.988
    13   1 H    0.999 --     4 C    0.986
    14   1 H    0.999 --     4 C    0.988
 ---------------------------------------------------------------------------

Topologies differ in total number of bonds
Writing topology from bond orders to xtbtopo.mol

molecular dipole:
                 x           y           z       tot (Debye)
 q only:       -0.000      -0.000      -0.015
   full:       -0.000      -0.000      -0.012       0.030
molecular quadrupole (traceless):
                xx          xy          yy          xz          yz          zz
 q only:       -0.027      -0.006      -0.068      -0.000       0.000       0.096
  q+dip:       -0.482       0.113       0.627       0.000       0.000      -0.144
   full:       -0.228       0.049       0.279       0.000       0.000      -0.051

           -------------------------------------------------
          |                Geometry Summary                 |
           -------------------------------------------------

      molecular mass/u    :       58.1223511
   center of mass at/Å    :       -0.0000170      -0.0000187      -0.0032507
  moments of inertia/u·Å² :        0.3768715E+02   0.1054478E+03   0.1229218E+03
rotational constants/cm⁻¹ :        0.4473045E+00   0.1598671E+00   0.1371411E+00

 * 13 selected distances

     #   Z          #   Z                                           value/Å
     1   6 C        2   6 C                                       1.5249350
     2   6 C        3   6 C                                       1.5292864 (max)
     3   6 C        4   6 C                                       1.5249290
     1   6 C        5   1 H                                       1.0866949
     1   6 C        6   1 H                                       1.0880086
     1   6 C        7   1 H                                       1.0877572
     2   6 C        8   1 H                                       1.0924176
     2   6 C        9   1 H                                       1.0927402
     3   6 C       10   1 H                                       1.0924204
     3   6 C       11   1 H                                       1.0927409
     4   6 C       12   1 H                                       1.0877600
     4   6 C       13   1 H                                       1.0866934 (min)
     4   6 C       14   1 H                                       1.0880076

 * 2 distinct bonds (by element types)

   Z      Z             #   av. dist./Å        max./Å        min./Å
   1 H    6 C          10     1.0895241     1.0927409     1.0866934
   6 C    6 C           3     1.5263835     1.5292864     1.5249290

           -------------------------------------------------
          |               Frequency Printout                |
           -------------------------------------------------
 projected vibrational frequencies (cm⁻¹)
eigval :       -0.00    -0.00    -0.00    -0.00     0.00     0.00
eigval :       96.45   200.49   258.49   322.16   432.26   787.78
eigval :      831.54   884.63   981.42  1017.39  1020.69  1138.44
eigval :     1145.35  1188.30  1256.30  1276.86  1350.29  1356.60
eigval :     1414.67  1415.04  1490.94  1493.84  1503.45  1504.90
eigval :     1508.21  1517.10  2962.75  2965.10  2981.07  2981.22
eigval :     3029.37  3031.83  3034.07  3034.21  3044.16  3050.30
 reduced masses (amu)
   1:  7.93   2:  9.39   3:  8.68   4:  9.46   5:  9.87   6:  9.04   7:  4.97   8:  1.45
   9:  4.00  10:  6.78  11:  7.22  12:  2.50  13:  3.12  14:  6.86  15:  2.46  16:  4.42
  17:  6.95  18:  7.46  19:  6.78  20:  6.57  21:  3.18  22:  2.34  23:  4.08  24:  5.13
  25:  3.34  26:  3.10  27:  1.86  28:  1.72  29:  1.57  30:  1.84  31:  1.54  32:  1.55
  33:  1.93  34:  1.88  35:  1.60  36:  1.49  37:  1.90  38:  1.93  39:  1.77  40:  1.70
  41:  1.46  42:  1.55
 IR intensities (km·mol⁻¹)
   1:  0.00   2:  0.00   3:  0.00   4:  0.00   5:  0.00   6:  0.00   7:  0.01   8:  0.07
   9:  0.05  10:  0.24  11:  1.11  12:  9.62  13:  4.03  14:  0.02  15:  4.08  16:  1.03
  17:  5.60  18:  0.33  19:  3.08  20:  0.03  21:  0.69  22:  0.43  23:  3.87  24:  0.70
  25:  3.15  26:  0.65  27:  0.27  28:  0.42  29:  2.91  30:  0.51  31:  3.03  32:  0.47
  33: 19.42  34: 36.19  35: 57.08  36: 52.82  37:  0.55  38:111.02  39: 86.57  40:  3.93
  41:  5.39  42: 64.69
 Raman intensities (amu)
   1:  0.00   2:  0.00   3:  0.00   4:  0.00   5:  0.00   6:  0.00   7:  0.00   8:  0.00
   9:  0.00  10:  0.00  11:  0.00  12:  0.00  13:  0.00  14:  0.00  15:  0.00  16:  0.00
  17:  0.00  18:  0.00  19:  0.00  20:  0.00  21:  0.00  22:  0.00  23:  0.00  24:  0.00
  25:  0.00  26:  0.00  27:  0.00  28:  0.00  29:  0.00  30:  0.00  31:  0.00  32:  0.00
  33:  0.00  34:  0.00  35:  0.00  36:  0.00  37:  0.00  38:  0.00  39:  0.00  40:  0.00
  41:  0.00  42:  0.00
 output can be read by thermo (or use thermo option).
 writing <g98.out> molden fake output.
 recommended (thermochemical) frequency scaling factor: 1.0
           -------------------------------------------------
          |             Thermodynamic Functions             |
           -------------------------------------------------

Molecule has the following symmetry elements: (C2) 
It seems to be the C2 point group
c2  symmetry found (for desy threshold:  0.10E+00) used in thermo

          ...................................................
          :                      SETUP                      :
          :.................................................:
          :  # frequencies                          36      :
          :  # imaginary freq.                       0      :
          :  linear?                             false      :
          :  only rotor calc.                    false      :
          :  symmetry                               c2      :
          :  rotational number                       2      :
          :  scaling factor                  1.0000000      :
          :  rotor cutoff                   50.0000000 cm⁻¹ :
          :  imag. cutoff                  -20.0000000 cm⁻¹ :
          :.................................................:

    mode    ω/cm⁻¹     T·S(HO)/kcal·mol⁻¹    T·S(FR)/kcal·mol⁻¹   T·S(vib)
   ------------------------------------------------------------------------
       1     96.45    -1.05090 ( 93.27%)    -0.86133 (  6.73%)    -1.03814
       2    200.49    -0.63463 ( 99.61%)    -0.64486 (  0.39%)    -0.63467
       3    258.49    -0.49849 ( 99.86%)    -0.56965 (  0.14%)    -0.49859
   ------------------------------------------------------------------------

   temp. (K)  partition function   enthalpy   heat capacity  entropy
                                   cal/mol     cal/K/mol   cal/K/mol   J/K/mol
 298.15  VIB   9.76                 1827.470     13.337     10.616
         ROT  0.267E+05              888.752      2.981     23.236
         INT  0.261E+06             2716.222     16.318     33.851
         TR   0.429E+27             1481.254      4.968     38.083
         TOT                        4197.4758    21.2859    71.9345   300.9739

       T/K    H(0)-H(T)+PV         H(T)/Eh          T*S/Eh         G(T)/Eh
   ------------------------------------------------------------------------
    298.15    0.668910E-02    0.137701E+00    0.341784E-01    0.103523E+00
   ------------------------------------------------------------------------

         :::::::::::::::::::::::::::::::::::::::::::::::::::::
         ::                  THERMODYNAMIC                  ::
         :::::::::::::::::::::::::::::::::::::::::::::::::::::
         :: total free energy         -13.560652869297 Eh   ::
         ::.................................................::
         :: total energy              -13.664175670127 Eh   ::
         :: zero point energy           0.131012095450 Eh   ::
         :: G(RRHO) w/o ZPVE           -0.027489294620 Eh   ::
         :: G(RRHO) contrib.            0.103522800830 Eh   ::
         :::::::::::::::::::::::::::::::::::::::::::::::::::::
 
 normal mode %tage of torsion character
   1:  0.00   2:  0.00   3:  0.00   4:  0.00   5:  0.00   6:  0.00   7:  0.59   8:  0.90
   9:  0.71  10:  0.58  11:  0.21  12:  0.55  13:  0.43  14:  0.26  15:  0.15  16:  0.12
  17:  0.06  18:  0.24  19:  0.28  20:  0.42  21:  0.22  22:  0.07  23:  0.10  24:  0.14
  25:  0.00  26:  0.00  27:  0.65  28:  0.74  29:  0.90  30:  0.75  31:  0.92  32:  0.92
  33:  0.34  34:  0.20  35:  0.02  36:  0.01  37:  0.05  38:  0.04  39:  0.03  40:  0.03
  41:  0.01  42:  0.03
 recommended # of modes for mode following           4

optimized geometry written to: xtbopt.xyz


           -------------------------------------------------
          | TOTAL ENERGY              -13.664175670127 Eh   |
          | TOTAL ENTHALPY            -13.526474471201 Eh   |
          | TOTAL FREE ENERGY         -13.560652869297 Eh   |
          | GRADIENT NORM               0.000793385781 Eh/α |
          | HOMO-LUMO GAP              14.249389553081 eV   |
           -------------------------------------------------

------------------------------------------------------------------------
 * finished run on 2024/04/17 at 11:33:29.642     
------------------------------------------------------------------------
 total:
 * wall-time:     0 d,  0 h,  0 min,  1.418 sec
 *  cpu-time:     0 d,  0 h,  0 min,  1.914 sec
 * ratio c/w:     1.350 speedup
 SCF:
 * wall-time:     0 d,  0 h,  0 min,  0.024 sec
 *  cpu-time:     0 d,  0 h,  0 min,  0.075 sec
 * ratio c/w:     3.087 speedup
 ANC optimizer:
 * wall-time:     0 d,  0 h,  0 min,  0.091 sec
 *  cpu-time:     0 d,  0 h,  0 min,  0.289 sec
 * ratio c/w:     3.168 speedup
 analytical hessian:
 * wall-time:     0 d,  0 h,  0 min,  0.480 sec
 *  cpu-time:     0 d,  0 h,  0 min,  0.876 sec
 * ratio c/w:     1.827 speedup

