14
 energy: -13.663348365531 gnorm: 0.019561728275 xtb: 6.6.1 (8d0f1dd)
C           -1.56323800000000       -0.03064200000000       -0.56732400000000
C           -0.67815200000000        0.35725900000000        0.60747000000000
C            0.67814500000000       -0.35738900000000        0.60736500000000
C            1.56327000000000        0.03078700000000       -0.56730600000000
H           -1.10888600000000        0.24458700000000       -1.52090800000000
H           -1.73652400000000       -1.10850100000000       -0.59203000000000
H           -2.54033000000000        0.45701800000000       -0.52283500000000
H           -0.51353800000000        1.44333800000000        0.60895900000000
H           -1.20617800000000        0.14828700000000        1.54910000000000
H            0.51352700000000       -1.44353200000000        0.60862400000000
H            1.20617800000000       -0.14878900000000        1.54911300000000
H            2.53942900000000       -0.45869700000000       -0.52426100000000
H            1.10786800000000       -0.24222300000000       -1.52085300000000
H            1.73815100000000        1.10832800000000       -0.59070100000000
14
 energy: -13.664073452822 gnorm: 0.008789442477 xtb: 6.6.1 (8d0f1dd)
C           -1.56033938848163       -0.03303062487802       -0.56858122157176
C           -0.67457069536774        0.35998029425239        0.60315376935021
C            0.67457755778018       -0.36014602791741        0.60305245572898
C            1.56030672414689        0.03315723079912       -0.56860883557483
H           -1.10686902168987        0.25066405702316       -1.51688225055749
H           -1.72974124642556       -1.10976785855671       -0.58111159332881
H           -2.52948665973288        0.46076837938466       -0.50295181495581
H           -0.50665497532553        1.44254057707854        0.59005303434929
H           -1.19668388309542        0.12996168625002        1.53881394093967
H            0.50662188832765       -1.44271873651545        0.58964103408971
H            1.19671807119259       -0.13045821056400        1.53879675775395
H            2.52867674775968       -0.46228705039597       -0.50423981463193
H            1.10580359013601       -0.24846057958713       -1.51700952813250
H            1.73136329077562        1.10962786362679       -0.57971293345867
14
 energy: -13.664157116053 gnorm: 0.002034982518 xtb: 6.6.1 (8d0f1dd)
C           -1.56288179597945       -0.03324271371965       -0.56956199477244
C           -0.67410554739978        0.36012835804753        0.60258094312379
C            0.67409215713862       -0.36032271425492        0.60244568131791
C            1.56283836092045        0.03337685937951       -0.56960130941248
H           -1.11080848963940        0.25286349884225       -1.51571487034484
H           -1.72817733341626       -1.10892873998497       -0.57749335907816
H           -2.52926681515063        0.46110304097226       -0.49489932313412
H           -0.50352579813058        1.43955323984519        0.58249655415798
H           -1.19414233174623        0.12553329716128        1.53518882151177
H            0.50346256744304       -1.43973551056490        0.58201814968107
H            1.19417738999926       -0.12606235831776        1.53511056041152
H            2.52854642277326       -0.46247522415366       -0.49611427533497
H            1.10981386428371       -0.25079362414614       -1.51589086488279
H            1.72969934890399        1.10883359089397       -0.57615171324424
14
 energy: -13.664165423399 gnorm: 0.000461194062 xtb: 6.6.1 (8d0f1dd)
C           -1.56483083364023       -0.03344660944181       -0.56953043411928
C           -0.67386066665405        0.36103756377801        0.60221188723248
C            0.67384892028838       -0.36124672965338        0.60206494535354
C            1.56478121015330        0.03359206334454       -0.56957703827492
H           -1.11461087283133        0.25377646094995       -1.51588237066394
H           -1.72861111696866       -1.10906908755627       -0.57727564821105
H           -2.53110619421551        0.45999972990162       -0.49196831529246
H           -0.50285565077883        1.43985948556246        0.58063887223814
H           -1.19363650408355        0.12707496035869        1.53445382289966
H            0.50278788625852       -1.44005298621800        0.58011551850398
H            1.19368029360651       -0.12764494950964        1.53436513956986
H            2.53043306612156       -0.46125671765498       -0.49312896389182
H            1.11369037536679       -0.25179517252964       -1.51607339849251
H            1.73001208737710        1.10900298866843       -0.57600101685168
14
 energy: -13.664172008836 gnorm: 0.001590563382 xtb: 6.6.1 (8d0f1dd)
C           -1.56862818414746       -0.03358796446215       -0.56895933389516
C           -0.67344089484845        0.36230112704243        0.60096078625399
C            0.67343290212075       -0.36255068141903        0.60077643362584
C            1.56857175407045        0.03376532268780       -0.56902597459170
H           -1.12306046702500        0.25596724816925       -1.51671548985376
H           -1.72932851894995       -1.10949316183573       -0.57700323003796
H           -2.53571442630493        0.45713415149552       -0.48602564154193
H           -0.50113113111925        1.44050022411563        0.57646557815187
H           -1.19264544584821        0.13170470000974        1.53404811292703
H            0.50106579051668       -1.44073256369954        0.57583583104739
H            1.19270606503131       -0.13237732385332        1.53392939618310
H            2.53516914278985       -0.45808849392072       -0.48704688377220
H            1.12231334321516       -0.25421820262398       -1.51693244803859
H            1.73041207049904        1.10950661829408       -0.57589413645793
14
 energy: -13.664175670113 gnorm: 0.000793388276 xtb: 6.6.1 (8d0f1dd)
C           -1.56969309988335       -0.03366224351850       -0.56813795138023
C           -0.67297548094779        0.36287991385685        0.59979956264366
C            0.67297321942673       -0.36316318950769        0.59959408338115
C            1.56963119485269        0.03386203958924       -0.56821727403398
H           -1.12689490619333        0.25716500229467       -1.51695551204445
H           -1.72894629646776       -1.10991788292425       -0.57677813470850
H           -2.53761412995168        0.45531494124671       -0.48301641467249
H           -0.49961931279229        1.44113964877284        0.57373092462515
H           -1.19149389120916        0.13457367522032        1.53419557655818
H            0.49956882511659       -1.44140619339745        0.57303962759640
H            1.19156612017946       -0.13531440821950        1.53406117968196
H            2.53715673037789       -0.45604982550054       -0.48394272148282
H            1.12625093257584       -0.25557760318941       -1.51718568105324
H            1.72981209491616        1.10998712527671       -0.57577426511080
