 Entering Gaussian System
 *********************************************
 Gaussian 98:
 frequency output generated by the xtb code
 *********************************************
                         Standard orientation:
 --------------------------------------------------------------------
  Center     Atomic     Atomic              Coordinates (Angstroms)
  Number     Number      Type              X           Y           Z
 --------------------------------------------------------------------
    1          6             0       -5.056815    0.380203    0.076596
    2          6             0       -3.798574   -0.478421    0.039190
    3          6             0       -2.532326    0.370860   -0.037785
    4          6             0       -1.266368   -0.482143   -0.040027
    5          6             0       -0.000017    0.369155   -0.085517
    6          6             0        1.266366   -0.482132   -0.040643
    7          6             0        2.532274    0.370938   -0.035593
    8          6             0        3.798412   -0.478366    0.042783
    9          6             0        5.057034    0.379991    0.072623
   10          1             0       -5.945930   -0.243557    0.133051
   11          1             0       -5.125309    0.996050   -0.817602
   12          1             0       -5.043178    1.037627    0.943376
   13          1             0       -3.838816   -1.145524   -0.825019
   14          1             0       -3.758838   -1.101941    0.935519
   15          1             0       -2.560214    0.980285   -0.944306
   16          1             0       -2.504708    1.052269    0.816149
   17          1             0       -1.282924   -1.153993   -0.901620
   18          1             0       -1.249715   -1.102179    0.859770
   19          1             0        0.000171    1.057542    0.763254
   20          1             0       -0.000241    0.971396   -0.997196
   21          1             0        1.283738   -1.152096   -0.903681
   22          1             0        1.248972   -1.104140    0.857785
   23          1             0        2.503259    1.051740    0.818772
   24          1             0        2.561623    0.981003   -0.941645
   25          1             0        3.760589   -1.097295    0.942360
   26          1             0        3.836366   -1.149876   -0.818120
   27          1             0        5.124083    0.990173   -0.825559
   28          1             0        5.946016   -0.243752    0.131297
   29          1             0        5.045272    1.042861    0.935270
 --------------------------------------------------------------------
     1 basis functions        1 primitive gaussians
     1 alpha electrons        1 beta electrons
 
 Harmonic frequencies (cm**-1), IR intensities (km*mol⁻¹),
 Raman scattering activities (A**4/amu), Raman depolarization ratios,
 reduced masses (AMU), force constants (mDyne/A) and normal coordinates:
                      1                      2                      3
                        a                      a                      a 
 Frequencies --    36.3277                54.5356                64.5881
 Red. masses --     9.2138                 5.2415                 9.3347
 Frc consts  --     0.0000                 0.0000                 0.0000
 IR Inten    --     0.0007                 0.0000                 0.0432
 Raman Activ --     0.0000                 0.0000                 0.0000
 Depolar     --     0.0000                 0.0000                 0.0000
 Atom AN      X      Y      Z        X      Y      Z        X      Y      Z
   1   6    -0.03  -0.02  -0.41     0.01  -0.01   0.22     0.10   0.41  -0.00
   2   6    -0.01  -0.01  -0.17    -0.01  -0.01  -0.33    -0.09   0.13  -0.04
   3   6    -0.00   0.01   0.15     0.00   0.01   0.09     0.07  -0.12   0.02
   4   6     0.00   0.02   0.26    -0.00   0.00  -0.15    -0.04  -0.29   0.01
   5   6     0.00   0.02   0.40     0.00   0.00  -0.00     0.00  -0.35   0.03
   6   6    -0.00   0.02   0.26    -0.00   0.00   0.15     0.04  -0.29   0.01
   7   6     0.00   0.01   0.15     0.00  -0.01  -0.09    -0.07  -0.12   0.02
   8   6     0.01  -0.01  -0.17    -0.01   0.01   0.33     0.09   0.13  -0.04
   9   6     0.03  -0.02  -0.41     0.01  -0.00  -0.22    -0.10   0.41  -0.01
  10   1    -0.01  -0.01  -0.19    -0.00  -0.01  -0.04    -0.01   0.18  -0.02
  11   1     0.05   0.01  -0.11     0.00   0.16   0.18     0.08   0.14   0.01
  12   1    -0.07  -0.02  -0.11     0.01  -0.16   0.18     0.07   0.10   0.01
  13   1     0.05   0.01  -0.06    -0.02   0.14  -0.21    -0.07   0.05  -0.02
  14   1    -0.06  -0.02  -0.06     0.01  -0.15  -0.20    -0.07   0.02  -0.02
  15   1     0.04   0.03   0.06     0.02   0.11   0.10     0.06  -0.02   0.01
  16   1    -0.05  -0.02   0.07    -0.01  -0.10   0.11     0.05  -0.05   0.01
  17   1     0.03   0.01   0.07    -0.01   0.06  -0.09    -0.03  -0.08  -0.00
  18   1    -0.02  -0.01   0.07     0.01  -0.06  -0.09    -0.03  -0.09  -0.00
  19   1     0.00  -0.03   0.14    -0.03   0.00  -0.00    -0.00  -0.11   0.01
  20   1     0.00   0.04   0.14     0.03   0.00  -0.00     0.00  -0.10   0.01
  21   1    -0.03   0.01   0.07    -0.01  -0.06   0.09     0.03  -0.08  -0.00
  22   1     0.02  -0.01   0.07     0.01   0.06   0.09     0.03  -0.09  -0.00
  23   1     0.05  -0.02   0.07    -0.01   0.10  -0.11    -0.05  -0.04   0.01
  24   1    -0.04   0.03   0.06     0.02  -0.11  -0.10    -0.06  -0.02   0.01
  25   1     0.06  -0.02  -0.06     0.01   0.15   0.20     0.07   0.02  -0.02
  26   1    -0.05   0.01  -0.06    -0.02  -0.14   0.21     0.07   0.05  -0.02
  27   1    -0.05   0.01  -0.11     0.00  -0.16  -0.17    -0.08   0.14   0.01
  28   1     0.01  -0.01  -0.19    -0.00   0.00   0.04     0.01   0.18  -0.02
  29   1     0.07  -0.02  -0.11     0.01   0.16  -0.18    -0.07   0.11   0.01
                      4                      5                      6
                        a                      a                      a 
 Frequencies --    89.5939               106.3755               140.8462
 Red. masses --     8.2995                 5.7522                 7.4775
 Frc consts  --     0.0000                 0.0000                 0.0000
 IR Inten    --     0.0000                 0.0030                 0.0044
 Raman Activ --     0.0000                 0.0000                 0.0000
 Depolar     --     0.0000                 0.0000                 0.0000
 Atom AN      X      Y      Z        X      Y      Z        X      Y      Z
   1   6     0.02   0.01   0.25     0.00  -0.02   0.17    -0.01  -0.01  -0.13
   2   6     0.00  -0.00  -0.01    -0.01  -0.01  -0.29     0.01   0.01   0.08
   3   6    -0.01  -0.02  -0.45    -0.01   0.01  -0.10     0.01   0.02   0.36
   4   6    -0.01  -0.01  -0.25     0.00   0.02   0.29    -0.00   0.00  -0.03
   5   6    -0.00   0.00  -0.00     0.00   0.00  -0.16     0.00  -0.03  -0.53
   6   6    -0.01   0.01   0.25    -0.00   0.02   0.29     0.00  -0.00  -0.03
   7   6    -0.01   0.02   0.45     0.01   0.00  -0.10    -0.01   0.02   0.36
   8   6     0.00   0.00   0.01     0.01  -0.01  -0.29    -0.01   0.00   0.08
   9   6     0.02  -0.01  -0.25    -0.00  -0.01   0.17     0.01  -0.01  -0.13
  10   1     0.01   0.01   0.17    -0.00  -0.01  -0.04    -0.00  -0.01  -0.12
  11   1    -0.07  -0.03   0.06    -0.00   0.13   0.14     0.06   0.02  -0.02
  12   1     0.08   0.03   0.05     0.01  -0.13   0.15    -0.07  -0.03  -0.02
  13   1    -0.07  -0.03   0.02    -0.03   0.09  -0.15     0.05   0.02   0.00
  14   1     0.07   0.03   0.02     0.02  -0.10  -0.15    -0.05  -0.02   0.01
  15   1    -0.03  -0.09  -0.19     0.05  -0.03  -0.05    -0.01   0.10   0.17
  16   1     0.02   0.07  -0.20    -0.06   0.03  -0.05     0.02  -0.08   0.17
  17   1     0.04  -0.00  -0.07    -0.00  -0.11   0.18    -0.09  -0.02   0.01
  18   1    -0.05  -0.00  -0.07     0.01   0.13   0.17     0.08   0.02   0.00
  19   1    -0.05   0.00  -0.00     0.00   0.13  -0.15     0.00   0.13  -0.26
  20   1     0.05   0.00  -0.00     0.00  -0.14  -0.14     0.00  -0.15  -0.25
  21   1     0.04   0.00   0.07     0.00  -0.11   0.18     0.09  -0.02   0.01
  22   1    -0.05   0.00   0.07    -0.01   0.13   0.17    -0.08   0.02   0.00
  23   1     0.02  -0.07   0.19     0.06   0.03  -0.05    -0.02  -0.08   0.17
  24   1    -0.03   0.09   0.19    -0.05  -0.03  -0.05     0.01   0.10   0.17
  25   1     0.07  -0.03  -0.02    -0.02  -0.10  -0.15     0.05  -0.02   0.01
  26   1    -0.07   0.03  -0.02     0.03   0.09  -0.15    -0.05   0.02   0.00
  27   1    -0.07   0.03  -0.06     0.00   0.13   0.14    -0.06   0.02  -0.02
  28   1     0.01  -0.01  -0.17     0.00  -0.01  -0.04     0.00  -0.01  -0.12
  29   1     0.08  -0.03  -0.05    -0.01  -0.13   0.15     0.07  -0.03  -0.02
                      7                      8                      9
                        a                      a                      a 
 Frequencies --   146.1527               164.8663               233.5004
 Red. masses --     6.5236                 9.0249                 2.1748
 Frc consts  --     0.0000                 0.0000                 0.0000
 IR Inten    --     0.0000                 0.0002                 0.0071
 Raman Activ --     0.0000                 0.0000                 0.0000
 Depolar     --     0.0000                 0.0000                 0.0000
 Atom AN      X      Y      Z        X      Y      Z        X      Y      Z
   1   6    -0.02  -0.03  -0.09    -0.14  -0.28   0.03     0.03   0.00  -0.03
   2   6     0.02   0.02   0.17     0.14   0.14  -0.02     0.03  -0.01   0.17
   3   6     0.00   0.05   0.15    -0.00   0.36  -0.04     0.01  -0.01  -0.10
   4   6    -0.01   0.02  -0.43    -0.04   0.29   0.04     0.01   0.01  -0.05
   5   6     0.02   0.00   0.00     0.13   0.00   0.00     0.00   0.02   0.04
   6   6    -0.01  -0.02   0.43    -0.04  -0.29  -0.04    -0.01   0.00  -0.06
   7   6     0.00  -0.05  -0.15    -0.00  -0.36   0.04    -0.01  -0.01  -0.11
   8   6     0.02  -0.02  -0.17     0.14  -0.14   0.03    -0.03  -0.01   0.20
   9   6    -0.02   0.03   0.09    -0.14   0.28  -0.03    -0.03   0.00  -0.03
  10   1     0.00  -0.02   0.03     0.02  -0.17   0.01    -0.01  -0.00  -0.36
  11   1    -0.02  -0.09  -0.08    -0.11  -0.08   0.01     0.22   0.22   0.13
  12   1    -0.01   0.07  -0.09    -0.10  -0.09   0.01    -0.18  -0.21   0.16
  13   1     0.04  -0.03   0.08     0.09   0.04  -0.01     0.01  -0.06   0.09
  14   1    -0.01   0.04   0.08     0.09   0.04  -0.01     0.01   0.05   0.09
  15   1    -0.06   0.10   0.11    -0.01   0.09  -0.02    -0.02  -0.06  -0.07
  16   1     0.06  -0.07   0.11    -0.02   0.11  -0.02     0.02   0.05  -0.07
  17   1    -0.02   0.15  -0.23    -0.04   0.06   0.03     0.02   0.01  -0.02
  18   1     0.00  -0.14  -0.23    -0.04   0.10   0.02    -0.01  -0.00  -0.02
  19   1    -0.07  -0.00   0.00     0.09  -0.00   0.00     0.00  -0.02   0.03
  20   1     0.09   0.00   0.00     0.07   0.00   0.00    -0.00   0.04   0.03
  21   1    -0.02  -0.15   0.23    -0.04  -0.06  -0.03    -0.02   0.01  -0.02
  22   1     0.00   0.14   0.23    -0.04  -0.10  -0.02     0.01  -0.01  -0.02
  23   1     0.06   0.07  -0.11    -0.02  -0.11   0.02    -0.03   0.06  -0.08
  24   1    -0.06  -0.10  -0.11    -0.01  -0.09   0.02     0.03  -0.07  -0.07
  25   1    -0.01  -0.04  -0.08     0.09  -0.04   0.01    -0.01   0.06   0.10
  26   1     0.04   0.03  -0.08     0.09  -0.04   0.01    -0.01  -0.06   0.11
  27   1    -0.02   0.09   0.08    -0.11   0.08  -0.01    -0.25   0.25   0.14
  28   1     0.00   0.02  -0.03     0.02   0.17  -0.01     0.01  -0.00  -0.41
  29   1    -0.01  -0.07   0.09    -0.11   0.09  -0.01     0.20  -0.24   0.18
                     10                     11                     12
                        a                      a                      a 
 Frequencies --   233.6386               245.5560               295.8476
 Red. masses --     2.2093                 9.7922                 8.9756
 Frc consts  --     0.0000                 0.0000                 0.0000
 IR Inten    --     0.0001                 0.0320                 0.1780
 Raman Activ --     0.0000                 0.0000                 0.0000
 Depolar     --     0.0000                 0.0000                 0.0000
 Atom AN      X      Y      Z        X      Y      Z        X      Y      Z
   1   6    -0.00   0.00   0.04    -0.44  -0.02   0.02     0.04   0.16  -0.01
   2   6    -0.01  -0.00  -0.21    -0.32   0.11   0.02    -0.23  -0.27   0.01
   3   6     0.00   0.00   0.10    -0.22   0.03  -0.02    -0.21  -0.26   0.02
   4   6     0.00  -0.00   0.09    -0.17  -0.03  -0.02     0.08   0.15  -0.01
   5   6    -0.00  -0.00  -0.00     0.00  -0.15  -0.01    -0.00   0.35  -0.03
   6   6     0.00   0.00  -0.08     0.17  -0.03  -0.02    -0.08   0.15  -0.01
   7   6     0.01   0.00  -0.08     0.22   0.03  -0.01     0.21  -0.26   0.02
   8   6    -0.01   0.01   0.18     0.32   0.11   0.02     0.23  -0.27   0.01
   9   6     0.01  -0.00  -0.03     0.44  -0.02   0.02    -0.04   0.16  -0.01
  10   1     0.02   0.01   0.42    -0.10  -0.05  -0.02    -0.06   0.16   0.01
  11   1    -0.24  -0.25  -0.14    -0.14   0.01   0.02     0.08   0.05  -0.01
  12   1     0.22   0.24  -0.18    -0.17  -0.02   0.02     0.09   0.06  -0.01
  13   1    -0.01   0.06  -0.11    -0.10   0.02   0.01    -0.11  -0.07  -0.00
  14   1    -0.01  -0.07  -0.10    -0.09   0.03   0.01    -0.11  -0.08   0.00
  15   1     0.03   0.06   0.07    -0.06   0.00  -0.01    -0.10  -0.07   0.01
  16   1    -0.03  -0.05   0.07    -0.05   0.01  -0.01    -0.10  -0.08   0.01
  17   1    -0.01  -0.01   0.03    -0.06  -0.01  -0.01     0.07   0.04  -0.00
  18   1     0.01   0.01   0.03    -0.07  -0.01  -0.01     0.08   0.04  -0.00
  19   1     0.02   0.00  -0.00    -0.00  -0.04  -0.00     0.00   0.10  -0.01
  20   1    -0.02  -0.00  -0.00     0.00  -0.04   0.00    -0.00   0.09  -0.01
  21   1    -0.01   0.01  -0.03     0.06  -0.01  -0.01    -0.07   0.04  -0.00
  22   1     0.01  -0.01  -0.03     0.06  -0.01  -0.01    -0.08   0.04  -0.00
  23   1    -0.02   0.05  -0.06     0.05   0.01  -0.01     0.10  -0.07   0.01
  24   1     0.03  -0.05  -0.06     0.06   0.00  -0.01     0.10  -0.07   0.01
  25   1    -0.00   0.06   0.09     0.09   0.03   0.01     0.11  -0.08   0.00
  26   1    -0.00  -0.05   0.10     0.10   0.02   0.01     0.11  -0.07   0.00
  27   1    -0.20   0.22   0.13     0.15   0.01   0.02    -0.09   0.05  -0.01
  28   1     0.02  -0.01  -0.37     0.10  -0.05  -0.02     0.06   0.16   0.00
  29   1     0.20  -0.21   0.16     0.17  -0.02   0.02    -0.09   0.05  -0.01
                     13                     14                     15
                        a                      a                      a 
 Frequencies --   399.5301               457.2275               494.5256
 Red. masses --     8.8362                 9.4464                 8.9301
 Frc consts  --     0.0000                 0.0000                 0.0000
 IR Inten    --     0.0577                 0.0518                 0.1594
 Raman Activ --     0.0000                 0.0000                 0.0000
 Depolar     --     0.0000                 0.0000                 0.0000
 Atom AN      X      Y      Z        X      Y      Z        X      Y      Z
   1   6     0.33   0.02  -0.01     0.17  -0.07  -0.00    -0.21   0.02   0.01
   2   6     0.07  -0.27   0.00     0.23   0.12  -0.01    -0.03   0.18  -0.00
   3   6    -0.22   0.10   0.01     0.10   0.13  -0.01     0.26  -0.22   0.00
   4   6    -0.18   0.26   0.00    -0.26  -0.27   0.01     0.33  -0.10  -0.00
   5   6    -0.04   0.00   0.00    -0.48  -0.00  -0.00    -0.00   0.30  -0.01
   6   6    -0.18  -0.26  -0.00    -0.26   0.27  -0.01    -0.33  -0.10  -0.00
   7   6    -0.22  -0.10  -0.01     0.10  -0.13   0.01    -0.26  -0.22   0.00
   8   6     0.07   0.27  -0.01     0.23  -0.12   0.01     0.03   0.18  -0.00
   9   6     0.33  -0.02   0.01     0.17   0.07   0.00     0.21   0.02   0.01
  10   1     0.01   0.12  -0.00     0.07  -0.05  -0.00     0.00  -0.08   0.00
  11   1     0.18   0.01  -0.01     0.03  -0.02  -0.00    -0.12   0.00   0.00
  12   1     0.18   0.01  -0.01     0.02  -0.02   0.00    -0.12  -0.00   0.01
  13   1     0.03  -0.07  -0.00     0.09   0.03  -0.00    -0.03   0.05   0.00
  14   1     0.03  -0.07   0.00     0.09   0.03  -0.00    -0.04   0.04  -0.00
  15   1    -0.12   0.03   0.00     0.07   0.03  -0.00     0.12  -0.06   0.00
  16   1    -0.12   0.03   0.01     0.07   0.03   0.00     0.12  -0.06  -0.00
  17   1    -0.07   0.07   0.00    -0.10  -0.07   0.00     0.16  -0.03  -0.00
  18   1    -0.07   0.07  -0.00    -0.10  -0.07   0.01     0.16  -0.02   0.00
  19   1     0.03  -0.00   0.00    -0.21   0.00  -0.00     0.00   0.08   0.00
  20   1     0.03   0.00   0.00    -0.21  -0.00  -0.00    -0.00   0.08  -0.01
  21   1    -0.07  -0.07  -0.00    -0.10   0.07  -0.00    -0.16  -0.03  -0.00
  22   1    -0.07  -0.07  -0.00    -0.10   0.07  -0.01    -0.16  -0.02   0.00
  23   1    -0.12  -0.03  -0.00     0.07  -0.03  -0.00    -0.12  -0.06  -0.00
  24   1    -0.12  -0.03  -0.00     0.07  -0.03   0.00    -0.12  -0.06   0.00
  25   1     0.03   0.07  -0.00     0.09  -0.03   0.00     0.04   0.04  -0.00
  26   1     0.03   0.07   0.00     0.09  -0.03   0.00     0.03   0.05   0.00
  27   1     0.18  -0.01   0.01     0.03   0.02   0.00     0.12  -0.00   0.00
  28   1     0.01  -0.12   0.00     0.07   0.05   0.00    -0.00  -0.08   0.00
  29   1     0.18  -0.01   0.01     0.03   0.02  -0.00     0.12  -0.00   0.01
                     16                     17                     18
                        a                      a                      a 
 Frequencies --   768.6586               771.3457               784.8100
 Red. masses --     1.5789                 1.7310                 2.0268
 Frc consts  --     0.0000                 0.0000                 0.0000
 IR Inten    --    17.4433                 0.0200                 3.9055
 Raman Activ --     0.0000                 0.0000                 0.0000
 Depolar     --     0.0000                 0.0000                 0.0000
 Atom AN      X      Y      Z        X      Y      Z        X      Y      Z
   1   6     0.00  -0.00   0.00    -0.00   0.00  -0.01     0.00  -0.00   0.02
   2   6     0.00   0.00   0.04    -0.00  -0.00  -0.10     0.01   0.00   0.15
   3   6     0.00   0.00   0.08    -0.00  -0.01  -0.13     0.00   0.01   0.09
   4   6     0.00   0.01   0.11     0.00  -0.00  -0.09    -0.00  -0.00  -0.07
   5   6    -0.00   0.00   0.12     0.00   0.00   0.00    -0.00  -0.01  -0.15
   6   6    -0.00   0.00   0.11     0.00   0.00   0.09     0.00  -0.00  -0.07
   7   6    -0.00   0.00   0.08    -0.00   0.01   0.13    -0.00   0.01   0.09
   8   6    -0.00   0.00   0.04    -0.00   0.00   0.10    -0.01   0.00   0.15
   9   6    -0.00  -0.00   0.00    -0.00  -0.00   0.01    -0.00  -0.00   0.02
  10   1     0.00  -0.00  -0.01     0.00   0.00   0.03    -0.00  -0.00  -0.06
  11   1     0.03  -0.03  -0.02    -0.07   0.07   0.05     0.11  -0.10  -0.07
  12   1    -0.03   0.03  -0.02     0.07  -0.06   0.05    -0.11   0.10  -0.07
  13   1     0.02   0.11  -0.08    -0.03  -0.21   0.14     0.01   0.26  -0.16
  14   1    -0.03  -0.12  -0.07     0.04   0.22   0.13    -0.02  -0.27  -0.15
  15   1     0.02  -0.21  -0.12     0.01   0.28   0.16    -0.08  -0.16  -0.08
  16   1    -0.03   0.19  -0.14     0.00  -0.26   0.18     0.07   0.16  -0.10
  17   1     0.01   0.26  -0.18     0.05  -0.18   0.12    -0.09  -0.11   0.07
  18   1    -0.02  -0.27  -0.16    -0.04   0.19   0.11     0.09   0.11   0.06
  19   1     0.00   0.28  -0.20    -0.06   0.00  -0.00     0.00  -0.24   0.16
  20   1    -0.00  -0.30  -0.17     0.07  -0.00  -0.00     0.00   0.25   0.13
  21   1    -0.01   0.26  -0.18     0.05   0.18  -0.12     0.09  -0.11   0.07
  22   1     0.02  -0.27  -0.16    -0.04  -0.19  -0.11    -0.09   0.11   0.06
  23   1     0.03   0.19  -0.14     0.00   0.27  -0.18    -0.07   0.16  -0.10
  24   1    -0.02  -0.21  -0.12     0.01  -0.28  -0.16     0.08  -0.16  -0.09
  25   1     0.03  -0.12  -0.07     0.04  -0.22  -0.13     0.02  -0.27  -0.15
  26   1    -0.02   0.11  -0.08    -0.03   0.21  -0.15    -0.01   0.26  -0.17
  27   1    -0.03  -0.03  -0.02    -0.06  -0.07  -0.05    -0.11  -0.10  -0.07
  28   1    -0.00  -0.00  -0.01     0.00  -0.00  -0.03     0.00  -0.00  -0.06
  29   1     0.03   0.03  -0.02     0.07   0.06  -0.05     0.11   0.09  -0.07
                     19                     20                     21
                        a                      a                      a 
 Frequencies --   816.8309               866.7952               925.3917
 Red. masses --     2.4233                 2.7189                 2.7301
 Frc consts  --     0.0000                 0.0000                 0.0000
 IR Inten    --     0.0060                 2.1254                 0.0041
 Raman Activ --     0.0000                 0.0000                 0.0000
 Depolar     --     0.0000                 0.0000                 0.0000
 Atom AN      X      Y      Z        X      Y      Z        X      Y      Z
   1   6    -0.00  -0.00  -0.05    -0.00  -0.00  -0.09    -0.01  -0.00  -0.12
   2   6    -0.01  -0.00  -0.16    -0.01  -0.00  -0.11    -0.00   0.00  -0.01
   3   6    -0.00   0.00   0.05     0.01   0.01   0.19     0.01   0.01   0.18
   4   6     0.00   0.00   0.18     0.00   0.00   0.04    -0.00  -0.01  -0.18
   5   6     0.00   0.00  -0.00     0.00  -0.01  -0.20    -0.00   0.00  -0.00
   6   6     0.00  -0.00  -0.18    -0.00   0.00   0.04    -0.00   0.01   0.18
   7   6    -0.00  -0.00  -0.05    -0.01   0.01   0.19     0.01  -0.01  -0.18
   8   6    -0.01   0.00   0.16     0.01  -0.00  -0.11    -0.00   0.00   0.01
   9   6    -0.00   0.00   0.05     0.00  -0.00  -0.09    -0.01   0.00   0.12
  10   1     0.00   0.00   0.08     0.00   0.00   0.10     0.00   0.00   0.10
  11   1    -0.15   0.12   0.09    -0.17   0.14   0.09    -0.18   0.14   0.08
  12   1     0.15  -0.12   0.08     0.18  -0.13   0.08     0.19  -0.13   0.07
  13   1     0.06  -0.22   0.13     0.14  -0.13   0.06     0.21  -0.01  -0.00
  14   1    -0.04   0.23   0.12    -0.13   0.13   0.07    -0.21   0.01   0.02
  15   1     0.13  -0.06  -0.03     0.06  -0.20  -0.09    -0.11  -0.17  -0.07
  16   1    -0.13   0.06  -0.03    -0.07   0.19  -0.10     0.10   0.16  -0.09
  17   1    -0.02   0.23  -0.13    -0.17   0.04  -0.02    -0.10  -0.16   0.08
  18   1     0.01  -0.24  -0.12     0.16  -0.04  -0.02     0.10   0.16   0.07
  19   1     0.13   0.00  -0.00     0.00  -0.21   0.12    -0.20   0.00   0.00
  20   1    -0.13   0.00   0.00     0.00   0.22   0.10     0.21   0.00  -0.00
  21   1    -0.02  -0.23   0.13     0.17   0.04  -0.02    -0.10   0.16  -0.08
  22   1     0.01   0.24   0.12    -0.16  -0.04  -0.02     0.10  -0.16  -0.07
  23   1    -0.13  -0.06   0.03     0.07   0.19  -0.10     0.10  -0.16   0.09
  24   1     0.13   0.06   0.03    -0.06  -0.20  -0.09    -0.11   0.17   0.07
  25   1    -0.05  -0.23  -0.12     0.13   0.13   0.07    -0.21  -0.01  -0.01
  26   1     0.06   0.22  -0.13    -0.14  -0.13   0.06     0.21   0.01   0.00
  27   1    -0.15  -0.12  -0.08     0.17   0.14   0.09    -0.18  -0.14  -0.08
  28   1     0.00  -0.00  -0.08    -0.00   0.00   0.10     0.00  -0.00  -0.10
  29   1     0.15   0.12  -0.08    -0.18  -0.13   0.08     0.18   0.13  -0.07
                     22                     23                     24
                        a                      a                      a 
 Frequencies --   939.7168               942.1683               981.3525
 Red. masses --     5.9459                 6.1735                 2.3588
 Frc consts  --     0.0000                 0.0000                 0.0000
 IR Inten    --     4.4685                 2.3931                 0.9100
 Raman Activ --     0.0000                 0.0000                 0.0000
 Depolar     --     0.0000                 0.0000                 0.0000
 Atom AN      X      Y      Z        X      Y      Z        X      Y      Z
   1   6     0.25   0.08  -0.01     0.27   0.06  -0.02    -0.01  -0.00  -0.12
   2   6     0.06   0.19  -0.01     0.05   0.21  -0.01     0.00   0.00   0.09
   3   6    -0.13  -0.28   0.02    -0.19  -0.23   0.02     0.00   0.00   0.03
   4   6    -0.07   0.14  -0.00    -0.14   0.02   0.00    -0.00  -0.00  -0.14
   5   6    -0.04   0.00   0.00     0.00   0.08  -0.00     0.00   0.01   0.18
   6   6    -0.07  -0.14   0.00     0.14   0.02   0.00     0.00  -0.00  -0.14
   7   6    -0.13   0.28  -0.02     0.19  -0.23   0.02    -0.00   0.00   0.03
   8   6     0.06  -0.19   0.01    -0.05   0.21  -0.01    -0.00   0.00   0.09
   9   6     0.24  -0.08   0.01    -0.27   0.06  -0.01     0.01  -0.00  -0.12
  10   1     0.29  -0.30  -0.01     0.29  -0.30  -0.01     0.00   0.00   0.08
  11   1    -0.17  -0.01  -0.01    -0.16  -0.02  -0.01    -0.15   0.12   0.06
  12   1    -0.16  -0.01   0.02    -0.15  -0.02   0.02     0.16  -0.11   0.05
  13   1    -0.09   0.05   0.00    -0.08   0.06   0.00     0.22   0.07  -0.04
  14   1    -0.09   0.05   0.00    -0.08   0.05   0.00    -0.22  -0.07  -0.02
  15   1    -0.08  -0.07   0.01    -0.09  -0.06   0.01    -0.26  -0.03  -0.00
  16   1    -0.08  -0.07   0.00    -0.08  -0.06   0.00     0.25   0.03  -0.02
  17   1     0.01   0.03   0.00    -0.03   0.00   0.00     0.17  -0.11   0.05
  18   1     0.01   0.03  -0.00    -0.02   0.00  -0.00    -0.16   0.12   0.05
  19   1     0.04   0.00  -0.00     0.00   0.02  -0.00    -0.00   0.15  -0.07
  20   1     0.04  -0.00  -0.00    -0.00   0.02   0.00    -0.00  -0.15  -0.06
  21   1     0.01  -0.03  -0.00     0.03   0.00   0.00    -0.17  -0.11   0.05
  22   1     0.01  -0.03   0.00     0.02   0.00  -0.00     0.16   0.12   0.05
  23   1    -0.08   0.07  -0.00     0.08  -0.06   0.00    -0.25   0.03  -0.02
  24   1    -0.08   0.07  -0.01     0.09  -0.06   0.01     0.26  -0.03  -0.00
  25   1    -0.09  -0.05  -0.00     0.08   0.05   0.00     0.22  -0.07  -0.02
  26   1    -0.09  -0.05  -0.00     0.08   0.06   0.00    -0.22   0.07  -0.04
  27   1    -0.17   0.01   0.01     0.16  -0.02  -0.01     0.15   0.12   0.06
  28   1     0.29   0.30   0.00    -0.29  -0.30  -0.00    -0.00   0.00   0.08
  29   1    -0.16   0.01  -0.02     0.15  -0.02   0.02    -0.16  -0.11   0.06
                     25                     26                     27
                        a                      a                      a 
 Frequencies --  1024.4082              1050.2534              1053.8600
 Red. masses --     1.5799                 9.5122                10.5978
 Frc consts  --     0.0000                 0.0000                 0.0000
 IR Inten    --     0.0015                 0.7624                 0.4161
 Raman Activ --     0.0000                 0.0000                 0.0000
 Depolar     --     0.0000                 0.0000                 0.0000
 Atom AN      X      Y      Z        X      Y      Z        X      Y      Z
   1   6     0.01   0.00   0.08     0.08  -0.19   0.00    -0.20   0.14   0.01
   2   6    -0.01  -0.00  -0.10    -0.10   0.21  -0.00     0.19  -0.16  -0.00
   3   6     0.00   0.00   0.08    -0.17   0.03   0.00     0.29  -0.20  -0.00
   4   6    -0.00  -0.00  -0.04    -0.19  -0.33   0.01    -0.09   0.34  -0.01
   5   6     0.00   0.00   0.00    -0.00   0.48  -0.02    -0.36  -0.00  -0.00
   6   6    -0.00   0.00   0.04     0.19  -0.33   0.01    -0.09  -0.34   0.01
   7   6     0.00  -0.00  -0.08     0.17   0.03   0.00     0.29   0.19   0.00
   8   6    -0.01   0.00   0.10     0.10   0.21  -0.00     0.19   0.16   0.00
   9   6     0.00  -0.00  -0.08    -0.08  -0.19   0.00    -0.20  -0.14  -0.00
  10   1    -0.00  -0.00  -0.05    -0.08   0.09   0.00    -0.06   0.04   0.00
  11   1     0.09  -0.07  -0.04     0.15  -0.03   0.00    -0.07   0.04   0.00
  12   1    -0.10   0.07  -0.03     0.15  -0.03  -0.01    -0.07   0.04   0.00
  13   1    -0.15  -0.08   0.04     0.06   0.06  -0.00     0.04  -0.05   0.00
  14   1     0.15   0.08   0.02     0.06   0.06  -0.00     0.04  -0.05  -0.00
  15   1     0.24  -0.06  -0.03     0.06   0.01  -0.00     0.08  -0.05  -0.00
  16   1    -0.23   0.06  -0.02     0.07   0.01  -0.00     0.07  -0.05   0.00
  17   1    -0.29  -0.03   0.02     0.01  -0.08   0.00    -0.00   0.09  -0.01
  18   1     0.28   0.03   0.01     0.01  -0.08   0.00     0.00   0.10   0.00
  19   1    -0.30   0.00   0.00    -0.00   0.13  -0.01    -0.06  -0.00   0.00
  20   1     0.32   0.00  -0.00    -0.00   0.12  -0.01    -0.07   0.00   0.00
  21   1    -0.29   0.03  -0.02    -0.01  -0.08   0.00    -0.00  -0.09   0.01
  22   1     0.28  -0.03  -0.01    -0.02  -0.08   0.00     0.00  -0.10  -0.00
  23   1    -0.23  -0.06   0.02    -0.07   0.01  -0.00     0.07   0.05  -0.00
  24   1     0.24   0.06   0.03    -0.06   0.01  -0.00     0.08   0.05   0.00
  25   1     0.15  -0.08  -0.02    -0.06   0.06  -0.00     0.04   0.05   0.00
  26   1    -0.15   0.08  -0.04    -0.06   0.06  -0.01     0.04   0.05  -0.00
  27   1     0.09   0.07   0.04    -0.15  -0.03   0.00    -0.07  -0.04  -0.00
  28   1    -0.00   0.00   0.05     0.08   0.09   0.00    -0.06  -0.04  -0.00
  29   1    -0.10  -0.07   0.03    -0.15  -0.03  -0.01    -0.07  -0.04   0.00
                     28                     29                     30
                        a                      a                      a 
 Frequencies --  1093.8187              1099.0638              1109.0507
 Red. masses --     9.6509                 7.8937                 7.7314
 Frc consts  --     0.0000                 0.0000                 0.0000
 IR Inten    --     0.0078                 1.3275                 0.6333
 Raman Activ --     0.0000                 0.0000                 0.0000
 Depolar     --     0.0000                 0.0000                 0.0000
 Atom AN      X      Y      Z        X      Y      Z        X      Y      Z
   1   6     0.22  -0.18  -0.01     0.12  -0.26   0.00     0.05  -0.13   0.00
   2   6    -0.31   0.13   0.01    -0.25   0.21   0.01    -0.08   0.18  -0.00
   3   6    -0.10   0.19  -0.00     0.18  -0.16  -0.00    -0.13   0.01   0.01
   4   6     0.34   0.00  -0.01    -0.21   0.14  -0.00     0.30   0.15  -0.01
   5   6    -0.00  -0.27   0.01     0.03   0.00  -0.00    -0.48   0.00  -0.00
   6   6    -0.34   0.00  -0.01    -0.21  -0.14   0.00     0.30  -0.15   0.01
   7   6     0.10   0.19  -0.00     0.18   0.16   0.00    -0.13  -0.01  -0.01
   8   6     0.31   0.13   0.01    -0.25  -0.21  -0.01    -0.08  -0.18   0.01
   9   6    -0.22  -0.18  -0.00     0.12   0.26  -0.00     0.05   0.13  -0.00
  10   1     0.05  -0.04  -0.00    -0.06   0.07   0.00    -0.04   0.05   0.00
  11   1     0.08  -0.05  -0.01     0.16  -0.05   0.00     0.10  -0.02   0.00
  12   1     0.08  -0.05   0.00     0.16  -0.05  -0.01     0.09  -0.02  -0.01
  13   1    -0.13   0.04   0.00    -0.08   0.05   0.00     0.02   0.05  -0.00
  14   1    -0.13   0.04   0.01    -0.08   0.05   0.00     0.03   0.05  -0.00
  15   1    -0.04   0.06   0.00     0.19  -0.04  -0.00    -0.04   0.01   0.00
  16   1    -0.04   0.06  -0.01     0.19  -0.04  -0.01    -0.05   0.02  -0.00
  17   1     0.13  -0.00  -0.00    -0.04   0.04  -0.00     0.23   0.04  -0.01
  18   1     0.12  -0.00  -0.00    -0.05   0.04   0.00     0.24   0.05  -0.00
  19   1     0.00  -0.08   0.01     0.15   0.00  -0.00    -0.21  -0.00   0.00
  20   1    -0.00  -0.08  -0.00     0.14  -0.00  -0.00    -0.21   0.00   0.00
  21   1    -0.13  -0.00  -0.00    -0.04  -0.04   0.00     0.23  -0.04   0.01
  22   1    -0.12  -0.00  -0.00    -0.05  -0.04  -0.00     0.24  -0.05   0.00
  23   1     0.04   0.06  -0.01     0.19   0.04   0.01    -0.05  -0.02   0.00
  24   1     0.04   0.06   0.00     0.19   0.04   0.00    -0.04  -0.01  -0.00
  25   1     0.13   0.04   0.01    -0.08  -0.05  -0.00     0.03  -0.05   0.00
  26   1     0.13   0.04   0.00    -0.08  -0.05  -0.00     0.02  -0.05   0.00
  27   1    -0.08  -0.05  -0.01     0.16   0.05  -0.00     0.10   0.02  -0.00
  28   1    -0.05  -0.04  -0.00    -0.06  -0.07  -0.00    -0.04  -0.05   0.00
  29   1    -0.08  -0.05   0.00     0.16   0.05   0.01     0.09   0.02   0.01
                     31                     32                     33
                        a                      a                      a 
 Frequencies --  1114.3249              1122.9961              1144.7464
 Red. masses --     8.0684                 7.4689                 8.7290
 Frc consts  --     0.0000                 0.0000                 0.0000
 IR Inten    --     0.0028                 4.9781                 1.4529
 Raman Activ --     0.0000                 0.0000                 0.0000
 Depolar     --     0.0000                 0.0000                 0.0000
 Atom AN      X      Y      Z        X      Y      Z        X      Y      Z
   1   6    -0.11   0.14   0.00     0.15   0.02  -0.01    -0.07  -0.15   0.01
   2   6     0.25  -0.02  -0.01    -0.27  -0.21   0.02     0.10   0.30  -0.01
   3   6    -0.34   0.10   0.01     0.25   0.25  -0.01    -0.11  -0.32   0.01
   4   6     0.23  -0.20   0.01     0.12   0.04  -0.01     0.01   0.26  -0.01
   5   6     0.00  -0.02  -0.00    -0.13   0.00   0.00    -0.00  -0.28   0.01
   6   6    -0.23  -0.20   0.01     0.12  -0.04   0.01    -0.01   0.26  -0.01
   7   6     0.34   0.10   0.01     0.25  -0.25   0.02     0.11  -0.32   0.01
   8   6    -0.25  -0.02  -0.01    -0.27   0.21  -0.02    -0.10   0.30  -0.02
   9   6     0.11   0.14   0.00     0.15  -0.02   0.01     0.07  -0.15   0.01
  10   1    -0.01   0.01  -0.00     0.13  -0.14  -0.00    -0.14   0.14   0.00
  11   1    -0.06   0.04   0.00    -0.08  -0.02  -0.01     0.14  -0.01   0.01
  12   1    -0.07   0.04   0.00    -0.08  -0.02   0.02     0.14  -0.00  -0.02
  13   1     0.17  -0.00  -0.01    -0.23  -0.05   0.01     0.13   0.07  -0.00
  14   1     0.17  -0.00  -0.01    -0.23  -0.05   0.01     0.13   0.08  -0.01
  15   1    -0.18   0.02   0.00     0.04   0.07  -0.00    -0.02  -0.08   0.01
  16   1    -0.18   0.02   0.01     0.03   0.07  -0.01    -0.02  -0.08   0.00
  17   1     0.14  -0.06   0.00    -0.05   0.02  -0.00     0.03   0.06   0.00
  18   1     0.13  -0.06  -0.00    -0.05   0.02   0.00     0.04   0.06  -0.01
  19   1     0.00  -0.02   0.01    -0.15  -0.00   0.00    -0.00  -0.07   0.00
  20   1    -0.00  -0.02  -0.00    -0.15   0.00   0.00    -0.00  -0.07   0.01
  21   1    -0.14  -0.06  -0.00    -0.05  -0.02   0.00    -0.03   0.06   0.00
  22   1    -0.13  -0.06  -0.00    -0.05  -0.02  -0.00    -0.04   0.06  -0.01
  23   1     0.18   0.02   0.01     0.03  -0.07   0.01     0.02  -0.08   0.00
  24   1     0.18   0.02   0.00     0.04  -0.07   0.00     0.02  -0.08   0.01
  25   1    -0.17   0.00  -0.00    -0.23   0.05  -0.01    -0.13   0.08  -0.01
  26   1    -0.17  -0.00  -0.01    -0.23   0.05  -0.01    -0.13   0.07  -0.01
  27   1     0.06   0.04   0.00    -0.08   0.02   0.01    -0.14  -0.01   0.01
  28   1     0.01   0.01  -0.00     0.13   0.14   0.00     0.14   0.14   0.00
  29   1     0.06   0.04   0.00    -0.08   0.02  -0.02    -0.14  -0.00  -0.02
                     34                     35                     36
                        a                      a                      a 
 Frequencies --  1198.8656              1213.4075              1233.4084
 Red. masses --     6.7804                 5.5652                 3.5068
 Frc consts  --     0.0000                 0.0000                 0.0000
 IR Inten    --     0.3626                 0.0023                 0.0217
 Raman Activ --     0.0000                 0.0000                 0.0000
 Depolar     --     0.0000                 0.0000                 0.0000
 Atom AN      X      Y      Z        X      Y      Z        X      Y      Z
   1   6    -0.01  -0.01  -0.15     0.01   0.01   0.21     0.04   0.09  -0.01
   2   6     0.01   0.01   0.24    -0.01  -0.01  -0.30    -0.08  -0.15   0.01
   3   6    -0.01  -0.01  -0.26     0.01   0.01   0.23    -0.11   0.13   0.00
   4   6     0.01   0.01   0.27    -0.01  -0.01  -0.13    -0.16  -0.07   0.01
   5   6     0.00  -0.01  -0.27     0.00  -0.00  -0.00    -0.18  -0.00  -0.00
   6   6    -0.01   0.01   0.27    -0.01   0.01   0.13    -0.16   0.07  -0.01
   7   6     0.01  -0.01  -0.26     0.01  -0.01  -0.23    -0.11  -0.13  -0.00
   8   6    -0.01   0.01   0.24    -0.01   0.01   0.30    -0.08   0.15  -0.01
   9   6     0.01  -0.01  -0.15     0.01  -0.01  -0.21     0.04  -0.09   0.01
  10   1     0.00   0.00   0.07    -0.00  -0.00  -0.09     0.07  -0.07  -0.00
  11   1    -0.11   0.10   0.04     0.15  -0.13  -0.06    -0.07   0.00  -0.01
  12   1     0.12  -0.10   0.04    -0.16   0.13  -0.05    -0.06  -0.00   0.02
  13   1     0.00   0.14  -0.05     0.07  -0.17   0.05     0.07  -0.03  -0.01
  14   1    -0.01  -0.14  -0.04    -0.06   0.17   0.05     0.07  -0.03   0.00
  15   1    -0.02   0.15   0.05    -0.08  -0.13  -0.04     0.22   0.03  -0.01
  16   1     0.03  -0.15   0.06     0.08   0.13  -0.05     0.21   0.03  -0.00
  17   1     0.00   0.16  -0.06     0.15  -0.08   0.02     0.30  -0.01  -0.01
  18   1    -0.01  -0.16  -0.05    -0.14   0.08   0.02     0.28  -0.01  -0.00
  19   1     0.00  -0.16   0.06     0.14  -0.00  -0.00     0.31  -0.00   0.00
  20   1     0.00   0.17   0.05    -0.14  -0.00   0.00     0.32   0.00   0.00
  21   1    -0.00   0.16  -0.06     0.15   0.08  -0.02     0.29   0.01   0.01
  22   1     0.01  -0.16  -0.05    -0.14  -0.08  -0.03     0.28   0.01   0.00
  23   1    -0.03  -0.15   0.06     0.08  -0.13   0.05     0.20  -0.03   0.00
  24   1     0.02   0.15   0.05    -0.08   0.13   0.04     0.22  -0.03   0.01
  25   1     0.01  -0.14  -0.04    -0.06  -0.17  -0.05     0.07   0.03  -0.00
  26   1    -0.01   0.14  -0.05     0.07   0.17  -0.06     0.07   0.03   0.01
  27   1     0.11   0.10   0.04     0.15   0.13   0.06    -0.07  -0.00   0.01
  28   1    -0.00   0.00   0.07    -0.00   0.00   0.09     0.07   0.07   0.00
  29   1    -0.12  -0.10   0.04    -0.16  -0.13   0.05    -0.06   0.00  -0.02
                     37                     38                     39
                        a                      a                      a 
 Frequencies --  1241.1349              1267.4217              1273.6551
 Red. masses --     4.2816                 2.5723                 3.5367
 Frc consts  --     0.0000                 0.0000                 0.0000
 IR Inten    --     0.3273                 0.0060                 0.3150
 Raman Activ --     0.0000                 0.0000                 0.0000
 Depolar     --     0.0000                 0.0000                 0.0000
 Atom AN      X      Y      Z        X      Y      Z        X      Y      Z
   1   6    -0.01  -0.01  -0.20    -0.01  -0.00  -0.14    -0.04  -0.10   0.01
   2   6     0.01   0.01   0.20     0.00  -0.00   0.01     0.15   0.11  -0.02
   3   6    -0.01   0.00   0.01    -0.00   0.01   0.15     0.18  -0.02  -0.01
   4   6     0.00  -0.01  -0.19    -0.01  -0.01  -0.17     0.14  -0.09   0.01
   5   6    -0.00   0.01   0.27     0.01  -0.00  -0.00    -0.00   0.14   0.01
   6   6    -0.00  -0.01  -0.19    -0.01   0.01   0.17    -0.14  -0.09   0.01
   7   6     0.01   0.00   0.01     0.00  -0.01  -0.15    -0.18  -0.02  -0.00
   8   6    -0.01   0.01   0.20     0.00   0.00  -0.01    -0.15   0.11  -0.02
   9   6     0.01  -0.01  -0.20    -0.01   0.00   0.14     0.04  -0.10   0.00
  10   1     0.00   0.00   0.08     0.00   0.00   0.04    -0.08   0.08  -0.00
  11   1    -0.12   0.12   0.05    -0.09   0.08   0.03     0.05   0.01   0.02
  12   1     0.13  -0.11   0.04     0.09  -0.08   0.02     0.05   0.01  -0.02
  13   1    -0.21   0.11  -0.02    -0.34   0.01   0.01    -0.20   0.01   0.01
  14   1     0.21  -0.11  -0.04     0.34  -0.01  -0.02    -0.17   0.03   0.00
  15   1     0.19  -0.01  -0.01    -0.03  -0.08  -0.02    -0.35  -0.00   0.01
  16   1    -0.19   0.01   0.00     0.04   0.08  -0.03    -0.27  -0.01   0.01
  17   1    -0.16  -0.10   0.04    -0.06  -0.09   0.03    -0.26  -0.01  -0.00
  18   1     0.16   0.10   0.03     0.06   0.09   0.02    -0.19  -0.02   0.01
  19   1     0.00   0.14  -0.05     0.36  -0.00  -0.00     0.01   0.03   0.01
  20   1     0.00  -0.15  -0.04    -0.36  -0.00   0.00    -0.01   0.01  -0.01
  21   1     0.16  -0.10   0.04    -0.06   0.09  -0.03     0.24  -0.01  -0.00
  22   1    -0.16   0.10   0.03     0.06  -0.09  -0.02     0.21  -0.02   0.01
  23   1     0.19   0.01   0.00     0.04  -0.08   0.03     0.29  -0.00   0.01
  24   1    -0.19  -0.01  -0.01    -0.04   0.08   0.02     0.33  -0.00   0.01
  25   1    -0.21  -0.11  -0.03     0.34   0.01   0.01     0.17   0.02   0.00
  26   1     0.21   0.11  -0.02    -0.34  -0.01  -0.01     0.20   0.02   0.01
  27   1     0.13   0.12   0.05    -0.09  -0.08  -0.03    -0.05   0.01   0.02
  28   1    -0.00   0.00   0.08     0.00  -0.00  -0.04     0.08   0.08   0.00
  29   1    -0.13  -0.11   0.04     0.09   0.08  -0.02    -0.05   0.01  -0.02
                     40                     41                     42
                        a                      a                      a 
 Frequencies --  1275.1456              1284.5484              1294.4481
 Red. masses --     1.9252                 1.9287                 2.3291
 Frc consts  --     0.0000                 0.0000                 0.0000
 IR Inten    --     0.0042                 0.0308                 0.0446
 Raman Activ --     0.0000                 0.0000                 0.0000
 Depolar     --     0.0000                 0.0000                 0.0000
 Atom AN      X      Y      Z        X      Y      Z        X      Y      Z
   1   6     0.01   0.01   0.07     0.00  -0.00   0.09     0.01   0.01   0.06
   2   6    -0.01  -0.01  -0.10     0.01   0.01   0.10    -0.02  -0.01  -0.04
   3   6    -0.01  -0.00  -0.13     0.00  -0.01  -0.13    -0.02  -0.00  -0.16
   4   6    -0.00   0.00   0.10     0.01  -0.01  -0.08     0.01   0.01   0.04
   5   6    -0.01  -0.00  -0.00    -0.00   0.01   0.06    -0.00  -0.00   0.23
   6   6     0.01   0.00  -0.10    -0.01  -0.01  -0.08    -0.01   0.01   0.04
   7   6     0.00   0.00   0.13    -0.00  -0.01  -0.13     0.02  -0.00  -0.16
   8   6    -0.01   0.00   0.10    -0.01   0.01   0.10     0.02  -0.01  -0.04
   9   6     0.00  -0.00  -0.07    -0.00  -0.00   0.09    -0.01   0.01   0.06
  10   1     0.00  -0.01  -0.04    -0.00   0.00  -0.01     0.01  -0.01  -0.03
  11   1     0.03  -0.04  -0.02     0.06  -0.04  -0.01     0.03  -0.04  -0.01
  12   1    -0.04   0.04  -0.01    -0.05   0.04  -0.01    -0.04   0.03  -0.01
  13   1     0.05  -0.05   0.01     0.34   0.05  -0.03     0.12  -0.02  -0.00
  14   1    -0.04   0.05   0.01    -0.36  -0.05   0.00    -0.08   0.02   0.01
  15   1    -0.30   0.07   0.02     0.29   0.07   0.00    -0.17   0.08   0.02
  16   1     0.32  -0.06   0.01    -0.32  -0.06   0.03     0.22  -0.08   0.01
  17   1    -0.31   0.05  -0.01    -0.03  -0.04   0.01    -0.38   0.02   0.00
  18   1     0.34  -0.05  -0.02    -0.01   0.04   0.01     0.40  -0.02  -0.01
  19   1     0.15  -0.00  -0.00     0.00   0.03  -0.01     0.00   0.11  -0.03
  20   1    -0.13  -0.00   0.00     0.00  -0.03  -0.01     0.00  -0.12  -0.02
  21   1    -0.33  -0.05   0.01     0.03  -0.04   0.01     0.39   0.02   0.00
  22   1     0.33   0.05   0.02     0.01   0.04   0.01    -0.40  -0.02  -0.01
  23   1     0.31   0.06  -0.01     0.32  -0.06   0.03    -0.22  -0.08   0.01
  24   1    -0.32  -0.07  -0.02    -0.29   0.07   0.00     0.17   0.08   0.02
  25   1    -0.05  -0.05  -0.01     0.36  -0.05   0.00     0.08   0.02   0.01
  26   1     0.04   0.05  -0.01    -0.34   0.05  -0.03    -0.12  -0.02  -0.00
  27   1     0.04   0.04   0.02    -0.05  -0.04  -0.01    -0.03  -0.04  -0.01
  28   1    -0.00   0.00   0.04     0.01   0.00  -0.01    -0.01  -0.01  -0.03
  29   1    -0.04  -0.04   0.02     0.05   0.04  -0.01     0.03   0.03  -0.01
                     43                     44                     45
                        a                      a                      a 
 Frequencies --  1297.1234              1312.1445              1345.3196
 Red. masses --     2.1363                 3.7020                 4.1617
 Frc consts  --     0.0000                 0.0000                 0.0000
 IR Inten    --     0.0067                 0.9910                 0.0431
 Raman Activ --     0.0000                 0.0000                 0.0000
 Depolar     --     0.0000                 0.0000                 0.0000
 Atom AN      X      Y      Z        X      Y      Z        X      Y      Z
   1   6     0.01   0.01   0.05     0.04   0.09  -0.01     0.03   0.08  -0.01
   2   6    -0.02  -0.00   0.08    -0.22  -0.05   0.00    -0.27   0.00   0.01
   3   6    -0.03  -0.01  -0.09    -0.15  -0.06   0.02     0.01  -0.07   0.01
   4   6     0.00   0.00  -0.18     0.07   0.10   0.02     0.24  -0.00  -0.00
   5   6     0.03   0.00  -0.00     0.20  -0.00  -0.00     0.00   0.08  -0.01
   6   6     0.00  -0.00   0.18     0.08  -0.10  -0.02    -0.24  -0.00  -0.01
   7   6    -0.03   0.01   0.09    -0.15   0.06  -0.02    -0.01  -0.07   0.01
   8   6    -0.02   0.00  -0.08    -0.22   0.05  -0.00     0.27   0.00   0.01
   9   6     0.01  -0.01  -0.05     0.04  -0.09   0.01    -0.03   0.08  -0.01
  10   1     0.01  -0.01  -0.00     0.09  -0.09  -0.00     0.08  -0.09  -0.00
  11   1     0.03  -0.02  -0.01    -0.02  -0.02  -0.02     0.01  -0.03  -0.03
  12   1    -0.03   0.02  -0.00    -0.01  -0.02   0.03     0.01  -0.03   0.03
  13   1     0.26   0.04  -0.02     0.24  -0.01  -0.01     0.28  -0.01  -0.01
  14   1    -0.20  -0.04  -0.00     0.29  -0.01  -0.01     0.30  -0.01  -0.02
  15   1     0.27   0.04  -0.00     0.20  -0.01   0.00     0.00   0.01   0.02
  16   1    -0.21  -0.04   0.02     0.25   0.00  -0.02    -0.00   0.01  -0.02
  17   1    -0.15  -0.09   0.03    -0.09   0.02   0.01    -0.27  -0.00   0.00
  18   1     0.13   0.09   0.01    -0.12  -0.00  -0.01    -0.30   0.00   0.01
  19   1     0.36  -0.00  -0.00    -0.35  -0.00   0.00    -0.00  -0.01   0.02
  20   1    -0.43  -0.00   0.00    -0.25   0.00   0.00     0.00  -0.00  -0.02
  21   1    -0.15   0.09  -0.02    -0.09  -0.02  -0.01     0.27  -0.00   0.01
  22   1     0.13  -0.09  -0.01    -0.12   0.00   0.01     0.30   0.00   0.01
  23   1    -0.21   0.04  -0.02     0.25  -0.00   0.02     0.00   0.01  -0.02
  24   1     0.27  -0.04   0.00     0.20   0.01  -0.00    -0.00   0.01   0.02
  25   1    -0.20   0.04   0.00     0.29   0.01   0.01    -0.30  -0.01  -0.02
  26   1     0.25  -0.04   0.02     0.24   0.01   0.01    -0.28  -0.01  -0.01
  27   1     0.03   0.02   0.01    -0.02   0.02   0.02    -0.01  -0.03  -0.03
  28   1     0.01   0.01   0.00     0.09   0.09   0.00    -0.08  -0.09  -0.00
  29   1    -0.03  -0.02   0.00    -0.01   0.02  -0.03    -0.01  -0.03   0.03
                     46                     47                     48
                        a                      a                      a 
 Frequencies --  1369.0106              1379.2824              1379.6362
 Red. masses --     4.7677                 5.8999                 5.4126
 Frc consts  --     0.0000                 0.0000                 0.0000
 IR Inten    --     0.9733                 0.1781                 0.0230
 Raman Activ --     0.0000                 0.0000                 0.0000
 Depolar     --     0.0000                 0.0000                 0.0000
 Atom AN      X      Y      Z        X      Y      Z        X      Y      Z
   1   6     0.03   0.05  -0.00    -0.03  -0.00   0.00    -0.03  -0.02   0.00
   2   6    -0.27   0.03   0.01     0.11  -0.01  -0.00     0.22  -0.02  -0.01
   3   6     0.21  -0.03  -0.01    -0.22  -0.01   0.01    -0.31  -0.01   0.01
   4   6     0.09  -0.05  -0.00     0.31  -0.01  -0.01     0.23   0.02  -0.00
   5   6    -0.26   0.00  -0.00    -0.35  -0.00   0.00    -0.00   0.03  -0.00
   6   6     0.09   0.05   0.00     0.31   0.01   0.01    -0.23   0.02  -0.01
   7   6     0.21   0.03   0.01    -0.22   0.01  -0.01     0.31  -0.01   0.01
   8   6    -0.27  -0.03  -0.01     0.11   0.01   0.00    -0.22  -0.02  -0.01
   9   6     0.03  -0.05   0.00    -0.03   0.00  -0.00     0.03  -0.02   0.00
  10   1     0.06  -0.07  -0.00    -0.00  -0.00  -0.00    -0.03   0.03   0.00
  11   1     0.01  -0.03  -0.03     0.02   0.01   0.00     0.00   0.02   0.02
  12   1     0.02  -0.03   0.03     0.02   0.01  -0.01     0.00   0.02  -0.02
  13   1     0.25  -0.01  -0.00    -0.08   0.01  -0.00    -0.18   0.01  -0.00
  14   1     0.26  -0.01  -0.02    -0.08   0.01   0.01    -0.18   0.01   0.02
  15   1    -0.21   0.01   0.02     0.17   0.00   0.00     0.27  -0.00  -0.01
  16   1    -0.22   0.01  -0.01     0.17   0.00  -0.01     0.28  -0.00  -0.01
  17   1    -0.09   0.01  -0.01    -0.25   0.00   0.00    -0.20  -0.01   0.01
  18   1    -0.09   0.01   0.02    -0.25   0.00   0.01    -0.21  -0.01  -0.01
  19   1     0.28   0.00  -0.00     0.28   0.00  -0.00     0.00  -0.01   0.01
  20   1     0.27   0.00  -0.00     0.27   0.00  -0.00     0.00  -0.01  -0.01
  21   1    -0.09  -0.01   0.01    -0.25  -0.00  -0.00     0.20  -0.01   0.01
  22   1    -0.09  -0.01  -0.02    -0.25  -0.00  -0.01     0.21  -0.01  -0.01
  23   1    -0.22  -0.01   0.00     0.17  -0.00   0.01    -0.28  -0.00  -0.01
  24   1    -0.21  -0.01  -0.02     0.17  -0.00  -0.00    -0.27  -0.00  -0.01
  25   1     0.26   0.01   0.02    -0.08  -0.01  -0.01     0.18   0.01   0.02
  26   1     0.25   0.01  -0.00    -0.08  -0.01   0.00     0.18   0.01  -0.00
  27   1     0.01   0.03   0.03     0.02  -0.01  -0.00    -0.00   0.02   0.02
  28   1     0.06   0.07  -0.00    -0.00   0.00  -0.00     0.03   0.03  -0.00
  29   1     0.02   0.03  -0.03     0.02  -0.01   0.01    -0.00   0.02  -0.02
                     49                     50                     51
                        a                      a                      a 
 Frequencies --  1416.1221              1416.1954              1495.5288
 Red. masses --     3.1810                 3.1900                 1.8929
 Frc consts  --     0.0000                 0.0000                 0.0000
 IR Inten    --     0.4619                 1.2049                 0.0816
 Raman Activ --     0.0000                 0.0000                 0.0000
 Depolar     --     0.0000                 0.0000                 0.0000
 Atom AN      X      Y      Z        X      Y      Z        X      Y      Z
   1   6    -0.26   0.16   0.01    -0.26   0.16   0.01     0.00   0.03   0.00
   2   6     0.06   0.00  -0.00     0.06   0.00  -0.00     0.00  -0.11   0.00
   3   6     0.00   0.02  -0.00    -0.00   0.01  -0.00     0.03  -0.05   0.00
   4   6    -0.02  -0.01   0.00    -0.02  -0.01   0.00    -0.00   0.16  -0.00
   5   6     0.00  -0.00   0.00     0.02   0.00   0.00    -0.03   0.00  -0.00
   6   6     0.02  -0.01   0.00    -0.02   0.01  -0.00    -0.00  -0.16   0.00
   7   6    -0.00   0.02  -0.00    -0.00  -0.01   0.00     0.03   0.05  -0.00
   8   6    -0.06   0.00  -0.00     0.06  -0.00   0.00     0.00   0.11  -0.00
   9   6     0.26   0.16   0.01    -0.26  -0.16  -0.01     0.00  -0.03   0.00
  10   1     0.20  -0.30  -0.00     0.19  -0.30  -0.00    -0.02   0.03  -0.00
  11   1     0.32  -0.12  -0.12     0.32  -0.12  -0.12    -0.01  -0.08  -0.05
  12   1     0.33  -0.11   0.09     0.33  -0.11   0.09    -0.00  -0.07   0.06
  13   1    -0.06  -0.03   0.02    -0.06  -0.03   0.02    -0.01   0.20  -0.16
  14   1    -0.06  -0.03  -0.02    -0.06  -0.03  -0.02     0.00   0.21   0.15
  15   1    -0.01   0.01   0.00    -0.01   0.01   0.00    -0.02   0.10   0.07
  16   1    -0.01   0.01  -0.00    -0.01   0.01  -0.00    -0.02   0.09  -0.07
  17   1     0.02  -0.00  -0.00     0.03  -0.00  -0.00     0.01  -0.29   0.23
  18   1     0.02   0.00   0.00     0.03  -0.00  -0.00    -0.00  -0.31  -0.21
  19   1    -0.00   0.00  -0.00    -0.02  -0.00   0.00     0.02  -0.00   0.00
  20   1    -0.00   0.00   0.00    -0.02  -0.00   0.00     0.02  -0.00  -0.00
  21   1    -0.02  -0.00  -0.00     0.03   0.00   0.00     0.01   0.29  -0.23
  22   1    -0.02  -0.00   0.00     0.03   0.00   0.00    -0.00   0.30   0.22
  23   1     0.01   0.01  -0.00    -0.01  -0.01   0.00    -0.02  -0.09   0.07
  24   1     0.01   0.01   0.00    -0.01  -0.01  -0.00    -0.02  -0.10  -0.07
  25   1     0.06  -0.03  -0.02    -0.06   0.03   0.02     0.00  -0.21  -0.15
  26   1     0.06  -0.03   0.02    -0.06   0.03  -0.02    -0.01  -0.20   0.16
  27   1    -0.32  -0.12  -0.12     0.32   0.12   0.12    -0.01   0.08   0.05
  28   1    -0.19  -0.30   0.00     0.19   0.30  -0.00    -0.02  -0.03   0.00
  29   1    -0.33  -0.11   0.09     0.33   0.11  -0.09    -0.00   0.07  -0.06
                     52                     53                     54
                        a                      a                      a 
 Frequencies --  1495.8485              1497.5533              1499.0947
 Red. masses --     1.9252                 1.8680                 1.9843
 Frc consts  --     0.0000                 0.0000                 0.0000
 IR Inten    --     0.0045                 0.2205                 0.0002
 Raman Activ --     0.0000                 0.0000                 0.0000
 Depolar     --     0.0000                 0.0000                 0.0000
 Atom AN      X      Y      Z        X      Y      Z        X      Y      Z
   1   6    -0.01  -0.01  -0.00    -0.00  -0.04  -0.00     0.01   0.02   0.00
   2   6    -0.02  -0.02   0.00    -0.01   0.16  -0.00     0.03   0.01  -0.00
   3   6    -0.00   0.14  -0.01    -0.02   0.05  -0.00    -0.01  -0.19   0.01
   4   6     0.03   0.02  -0.00     0.01  -0.09   0.00    -0.02  -0.07   0.00
   5   6    -0.00  -0.19   0.01    -0.00  -0.01   0.00     0.02  -0.00   0.00
   6   6    -0.03   0.02  -0.00    -0.01  -0.09   0.00    -0.02   0.07  -0.00
   7   6     0.00   0.14  -0.01     0.02   0.05  -0.00    -0.01   0.19  -0.01
   8   6     0.02  -0.02   0.00     0.01   0.16  -0.00     0.03  -0.01   0.00
   9   6     0.01  -0.01  -0.00     0.00  -0.04   0.00     0.01  -0.02  -0.00
  10   1     0.01  -0.02   0.01     0.03  -0.04   0.00    -0.03   0.04  -0.02
  11   1     0.02   0.02   0.01     0.01   0.11   0.08    -0.03  -0.06  -0.04
  12   1     0.01   0.02  -0.01     0.00   0.11  -0.08    -0.01  -0.05   0.04
  13   1     0.01   0.06  -0.04     0.02  -0.31   0.24    -0.02  -0.02   0.02
  14   1     0.01   0.06   0.04    -0.01  -0.32  -0.23    -0.02  -0.03  -0.02
  15   1    -0.01  -0.28  -0.19     0.02  -0.08  -0.06     0.01   0.37   0.25
  16   1     0.00  -0.26   0.21     0.02  -0.08   0.07    -0.00   0.35  -0.28
  17   1    -0.02  -0.05   0.04    -0.00   0.17  -0.13     0.01   0.11  -0.09
  18   1    -0.02  -0.05  -0.03     0.00   0.18   0.12     0.01   0.11   0.08
  19   1    -0.00   0.36  -0.29     0.00  -0.00  -0.00    -0.01   0.00  -0.00
  20   1     0.00   0.38   0.26    -0.00  -0.00   0.00    -0.01   0.00   0.00
  21   1     0.02  -0.04   0.04     0.00   0.17  -0.13     0.01  -0.11   0.09
  22   1     0.02  -0.05  -0.03    -0.00   0.18   0.12     0.01  -0.11  -0.08
  23   1    -0.00  -0.26   0.21    -0.02  -0.08   0.07    -0.00  -0.35   0.28
  24   1     0.01  -0.28  -0.19    -0.02  -0.08  -0.06     0.01  -0.37  -0.25
  25   1    -0.01   0.06   0.04     0.00  -0.32  -0.22    -0.02   0.03   0.02
  26   1    -0.01   0.06  -0.04    -0.02  -0.31   0.24    -0.02   0.02  -0.02
  27   1    -0.02   0.02   0.01    -0.01   0.11   0.08    -0.03   0.06   0.04
  28   1    -0.01  -0.02   0.00    -0.03  -0.04   0.00    -0.03  -0.04   0.01
  29   1    -0.01   0.02  -0.01    -0.00   0.11  -0.08    -0.01   0.05  -0.04
                     55                     56                     57
                        a                      a                      a 
 Frequencies --  1500.9792              1502.0332              1504.7673
 Red. masses --     1.8276                 2.0519                 1.5443
 Frc consts  --     0.0000                 0.0000                 0.0000
 IR Inten    --     0.1941                 0.3919                 4.4624
 Raman Activ --     0.0000                 0.0000                 0.0000
 Depolar     --     0.0000                 0.0000                 0.0000
 Atom AN      X      Y      Z        X      Y      Z        X      Y      Z
   1   6    -0.00   0.03  -0.00    -0.01  -0.02  -0.01    -0.01  -0.01  -0.14
   2   6     0.00  -0.16   0.00    -0.02   0.02  -0.00    -0.00  -0.02  -0.03
   3   6     0.00   0.01  -0.00     0.02   0.11  -0.01     0.00   0.00   0.00
   4   6    -0.00  -0.11   0.00    -0.01   0.13  -0.00    -0.00  -0.03   0.00
   5   6     0.02   0.00  -0.00    -0.00   0.19  -0.01     0.00   0.01  -0.00
   6   6    -0.00   0.11  -0.00     0.01   0.13  -0.00     0.00  -0.03   0.00
   7   6     0.00  -0.01   0.00    -0.02   0.11  -0.01    -0.00   0.01   0.00
   8   6     0.00   0.16  -0.00     0.02   0.02  -0.00     0.00  -0.03  -0.03
   9   6    -0.00  -0.03   0.00     0.01  -0.02  -0.00     0.01  -0.01  -0.15
  10   1    -0.01   0.02   0.00     0.02  -0.03   0.02     0.03   0.00   0.47
  11   1    -0.00  -0.08  -0.05     0.03   0.07   0.04     0.29   0.11   0.04
  12   1     0.00  -0.07   0.06     0.00   0.06  -0.04    -0.28  -0.09   0.06
  13   1    -0.01   0.30  -0.24     0.01  -0.04   0.03     0.01   0.03  -0.03
  14   1     0.01   0.31   0.22     0.01  -0.04  -0.03    -0.01   0.06   0.03
  15   1    -0.00  -0.06  -0.04    -0.01  -0.20  -0.14    -0.01  -0.02  -0.01
  16   1    -0.00  -0.06   0.04     0.00  -0.19   0.15     0.01  -0.01   0.01
  17   1    -0.01   0.21  -0.16     0.01  -0.21   0.17    -0.00   0.06  -0.05
  18   1    -0.00   0.22   0.15     0.00  -0.22  -0.15     0.00   0.06   0.04
  19   1    -0.01  -0.00   0.00     0.00  -0.32   0.26     0.00  -0.03   0.03
  20   1    -0.01  -0.00  -0.00     0.00  -0.34  -0.23    -0.00  -0.04  -0.02
  21   1    -0.01  -0.21   0.16    -0.01  -0.21   0.17     0.00   0.06  -0.05
  22   1    -0.00  -0.22  -0.15    -0.00  -0.22  -0.16    -0.00   0.06   0.04
  23   1    -0.00   0.06  -0.04    -0.00  -0.19   0.16    -0.02  -0.02   0.01
  24   1    -0.00   0.06   0.04     0.01  -0.20  -0.14     0.01  -0.02  -0.01
  25   1     0.01  -0.31  -0.22    -0.01  -0.04  -0.03     0.01   0.06   0.03
  26   1    -0.01  -0.30   0.24    -0.01  -0.04   0.03    -0.01   0.03  -0.04
  27   1    -0.00   0.08   0.05    -0.03   0.07   0.04    -0.33   0.12   0.05
  28   1    -0.01  -0.02   0.00    -0.02  -0.03   0.02    -0.03   0.01   0.52
  29   1     0.00   0.07  -0.06    -0.01   0.06  -0.05     0.31  -0.09   0.07
                     58                     59                     60
                        a                      a                      a 
 Frequencies --  1504.7964              1505.1461              1507.9545
 Red. masses --     1.5332                 1.7669                 1.6649
 Frc consts  --     0.0000                 0.0000                 0.0000
 IR Inten    --     0.0191                 0.2323                 1.1068
 Raman Activ --     0.0000                 0.0000                 0.0000
 Depolar     --     0.0000                 0.0000                 0.0000
 Atom AN      X      Y      Z        X      Y      Z        X      Y      Z
   1   6     0.01   0.01   0.16     0.02   0.01  -0.04     0.08   0.12  -0.01
   2   6     0.00   0.01   0.03     0.01   0.10  -0.01     0.03   0.08  -0.00
   3   6     0.00   0.00  -0.00    -0.00  -0.06   0.00    -0.02   0.03  -0.00
   4   6     0.00   0.01  -0.00     0.00   0.12  -0.00     0.01   0.00  -0.00
   5   6    -0.00  -0.00   0.00     0.00  -0.09   0.00    -0.00  -0.00   0.00
   6   6     0.00   0.01   0.00    -0.00   0.12  -0.00     0.01  -0.00   0.00
   7   6    -0.00  -0.01   0.00     0.00  -0.06   0.00    -0.02  -0.03   0.00
   8   6     0.00   0.00  -0.03    -0.01   0.10  -0.01     0.03  -0.08   0.00
   9   6     0.01  -0.01  -0.14    -0.02   0.01  -0.03     0.08  -0.12   0.01
  10   1    -0.03  -0.01  -0.52    -0.02   0.04   0.13    -0.12   0.19   0.01
  11   1    -0.32  -0.11  -0.04     0.05  -0.02  -0.02    -0.10  -0.34  -0.23
  12   1     0.32   0.10  -0.07    -0.10  -0.07   0.05    -0.09  -0.34   0.26
  13   1    -0.01   0.00   0.01    -0.00  -0.19   0.15    -0.02  -0.09   0.08
  14   1     0.01  -0.03  -0.01    -0.02  -0.19  -0.14    -0.03  -0.09  -0.07
  15   1     0.01  -0.01  -0.00    -0.00   0.14   0.10     0.00  -0.07  -0.05
  16   1    -0.01  -0.01   0.01    -0.00   0.14  -0.11     0.01  -0.07   0.05
  17   1     0.00  -0.02   0.01     0.00  -0.25   0.19    -0.00   0.00  -0.00
  18   1    -0.00  -0.02  -0.01    -0.00  -0.26  -0.18    -0.00   0.00   0.00
  19   1     0.00   0.01  -0.01    -0.00   0.19  -0.16    -0.00   0.00  -0.00
  20   1    -0.00   0.01   0.01    -0.00   0.21   0.14    -0.00   0.00   0.00
  21   1     0.00  -0.01   0.01    -0.00  -0.25   0.19    -0.00  -0.00   0.00
  22   1    -0.00  -0.02  -0.01     0.01  -0.26  -0.18    -0.00  -0.00  -0.00
  23   1    -0.01   0.02  -0.01     0.00   0.13  -0.11     0.01   0.07  -0.06
  24   1     0.01   0.02   0.01    -0.00   0.14   0.10     0.00   0.07   0.05
  25   1     0.01   0.00  -0.01     0.02  -0.19  -0.14    -0.03   0.09   0.07
  26   1    -0.01  -0.02   0.01     0.00  -0.19   0.15    -0.02   0.09  -0.08
  27   1    -0.30   0.10   0.04    -0.02  -0.03  -0.02    -0.10   0.35   0.23
  28   1    -0.02   0.01   0.48     0.02   0.04   0.08    -0.12  -0.19  -0.01
  29   1     0.30  -0.10   0.07     0.07  -0.06   0.05    -0.09   0.34  -0.27
                     61                     62                     63
                        a                      a                      a 
 Frequencies --  1508.1087              2952.3474              2953.7535
 Red. masses --     1.6372                 1.8814                 1.9111
 Frc consts  --     0.0000                 0.0000                 0.0000
 IR Inten    --     1.2533                 0.1580                 0.0008
 Raman Activ --     0.0000                 0.0000                 0.0000
 Depolar     --     0.0000                 0.0000                 0.0000
 Atom AN      X      Y      Z        X      Y      Z        X      Y      Z
   1   6    -0.08  -0.12   0.01     0.00   0.00  -0.00    -0.00  -0.00   0.00
   2   6    -0.03  -0.06   0.00     0.00   0.00   0.02    -0.00  -0.00  -0.06
   3   6     0.02  -0.05   0.00    -0.00  -0.00  -0.08     0.00   0.01   0.14
   4   6    -0.01   0.02  -0.00     0.00   0.00   0.14    -0.00   0.00  -0.13
   5   6     0.00  -0.03   0.00    -0.00  -0.01  -0.16     0.00   0.00  -0.00
   6   6     0.01   0.02  -0.00    -0.00   0.00   0.14    -0.00  -0.00   0.13
   7   6    -0.02  -0.05   0.00     0.00  -0.00  -0.08     0.00  -0.01  -0.14
   8   6     0.03  -0.06   0.00    -0.00   0.00   0.02    -0.00   0.00   0.06
   9   6     0.07  -0.12   0.01    -0.00   0.00  -0.00    -0.00   0.00  -0.00
  10   1     0.12  -0.18  -0.01    -0.00  -0.00  -0.00     0.00   0.00   0.00
  11   1     0.10   0.34   0.23     0.00  -0.00   0.00    -0.00   0.01  -0.01
  12   1     0.08   0.33  -0.26    -0.00   0.00   0.00     0.00  -0.01  -0.01
  13   1     0.02   0.06  -0.05    -0.00  -0.04  -0.05     0.01   0.10   0.12
  14   1     0.02   0.06   0.05    -0.00   0.04  -0.05     0.00  -0.09   0.12
  15   1    -0.00   0.10   0.07     0.01  -0.11   0.16    -0.01   0.19  -0.27
  16   1    -0.01   0.10  -0.08     0.00   0.13   0.15    -0.01  -0.22  -0.27
  17   1     0.00  -0.05   0.04    -0.01  -0.21  -0.25     0.00   0.19   0.22
  18   1     0.00  -0.05  -0.03    -0.00   0.20  -0.28     0.01  -0.19   0.26
  19   1     0.00   0.07  -0.05     0.00   0.26   0.30    -0.00  -0.00  -0.00
  20   1     0.00   0.07   0.05     0.00  -0.21   0.30     0.00  -0.00   0.00
  21   1    -0.00  -0.05   0.04     0.01  -0.21  -0.25     0.00  -0.18  -0.22
  22   1    -0.00  -0.05  -0.03     0.00   0.20  -0.28     0.01   0.19  -0.26
  23   1     0.01   0.10  -0.08    -0.00   0.13   0.15    -0.01   0.22   0.27
  24   1     0.00   0.10   0.07    -0.01  -0.11   0.16    -0.01  -0.19   0.27
  25   1    -0.02   0.06   0.05     0.00   0.04  -0.05     0.00   0.09  -0.12
  26   1    -0.02   0.06  -0.05     0.00  -0.04  -0.05     0.01  -0.10  -0.12
  27   1    -0.10   0.34   0.23    -0.00  -0.00   0.00    -0.00  -0.01   0.01
  28   1    -0.12  -0.18  -0.00     0.00  -0.00  -0.00     0.00  -0.00  -0.00
  29   1    -0.08   0.33  -0.26     0.00   0.00   0.00     0.00   0.01   0.01
                     64                     65                     66
                        a                      a                      a 
 Frequencies --  2956.7168              2960.7628              2966.4974
 Red. masses --     1.9454                 1.9805                 2.0012
 Frc consts  --     0.0000                 0.0000                 0.0000
 IR Inten    --     0.2752                 0.0048                 6.5108
 Raman Activ --     0.0000                 0.0000                 0.0000
 Depolar     --     0.0000                 0.0000                 0.0000
 Atom AN      X      Y      Z        X      Y      Z        X      Y      Z
   1   6     0.00  -0.00   0.01    -0.00   0.00  -0.01    -0.00  -0.00  -0.02
   2   6    -0.00  -0.00  -0.11     0.01  -0.00   0.14     0.01  -0.01   0.15
   3   6     0.00   0.01   0.14    -0.00  -0.01  -0.06     0.00   0.01   0.06
   4   6     0.00   0.00   0.02    -0.00   0.01  -0.14    -0.00   0.01  -0.08
   5   6    -0.00  -0.01  -0.14     0.00   0.00  -0.00    -0.00  -0.03  -0.15
   6   6    -0.00   0.00   0.02    -0.00  -0.01   0.14     0.00   0.01  -0.08
   7   6    -0.00   0.01   0.14    -0.00   0.01   0.06    -0.00   0.01   0.06
   8   6     0.00  -0.00  -0.11     0.01  -0.00  -0.14    -0.01  -0.00   0.15
   9   6    -0.00  -0.00   0.01    -0.00  -0.00   0.01     0.00  -0.00  -0.02
  10   1     0.00   0.00   0.00    -0.00  -0.00  -0.00    -0.00  -0.00  -0.00
  11   1    -0.00   0.01  -0.02     0.00  -0.02   0.03     0.00  -0.03   0.04
  12   1     0.00  -0.01  -0.01    -0.00   0.02   0.02     0.00   0.03   0.03
  13   1     0.01   0.16   0.20    -0.01  -0.20  -0.24    -0.01  -0.20  -0.24
  14   1     0.01  -0.15   0.21    -0.01   0.20  -0.28    -0.01   0.22  -0.31
  15   1    -0.01   0.18  -0.25     0.00  -0.07   0.10    -0.00   0.06  -0.08
  16   1    -0.01  -0.22  -0.26     0.01   0.09   0.11    -0.00  -0.11  -0.14
  17   1    -0.00  -0.03  -0.04     0.00   0.18   0.22     0.00   0.08   0.10
  18   1     0.00   0.03  -0.05     0.01  -0.20   0.28     0.00  -0.12   0.17
  19   1     0.00   0.22   0.27    -0.00  -0.00  -0.00     0.00   0.26   0.31
  20   1     0.00  -0.17   0.25     0.00  -0.00   0.00     0.00  -0.14   0.20
  21   1     0.00  -0.03  -0.04     0.00  -0.18  -0.22    -0.00   0.08   0.10
  22   1    -0.00   0.03  -0.05     0.01   0.20  -0.28    -0.00  -0.12   0.17
  23   1     0.01  -0.22  -0.26     0.01  -0.10  -0.12     0.00  -0.11  -0.13
  24   1     0.01   0.18  -0.25     0.00   0.07  -0.10     0.00   0.06  -0.08
  25   1    -0.01  -0.15   0.21    -0.01  -0.20   0.28     0.01   0.22  -0.31
  26   1    -0.01   0.16   0.20    -0.01   0.20   0.24     0.01  -0.20  -0.24
  27   1     0.00   0.01  -0.02     0.00   0.02  -0.03    -0.00  -0.03   0.04
  28   1    -0.00   0.00   0.00    -0.00   0.00   0.00     0.00  -0.00  -0.00
  29   1    -0.00  -0.01  -0.01    -0.00  -0.02  -0.02    -0.00   0.03   0.03
                     67                     68                     69
                        a                      a                      a 
 Frequencies --  2971.6786              2972.2516              2973.2551
 Red. masses --     1.5696                 1.4791                 1.8908
 Frc consts  --     0.0000                 0.0000                 0.0000
 IR Inten    --     0.0027                 1.6791                 0.2163
 Raman Activ --     0.0000                 0.0000                 0.0000
 Depolar     --     0.0000                 0.0000                 0.0000
 Atom AN      X      Y      Z        X      Y      Z        X      Y      Z
   1   6    -0.00  -0.00  -0.01    -0.00   0.00  -0.00     0.00   0.00  -0.02
   2   6     0.00   0.01   0.07     0.00   0.04   0.02     0.01  -0.03   0.11
   3   6     0.00   0.07   0.06     0.00  -0.07   0.02     0.00   0.00   0.12
   4   6     0.00  -0.11   0.03     0.00  -0.05  -0.01     0.00   0.07   0.08
   5   6    -0.00  -0.00   0.00    -0.00   0.14  -0.03     0.00   0.00  -0.00
   6   6     0.00   0.11  -0.03    -0.00  -0.04  -0.00     0.00  -0.07  -0.08
   7   6     0.00  -0.06  -0.06    -0.00  -0.08   0.03     0.00  -0.00  -0.12
   8   6     0.00  -0.01  -0.07    -0.00   0.04   0.03     0.00   0.03  -0.11
   9   6    -0.00   0.00   0.01     0.00   0.00  -0.00     0.00  -0.00   0.02
  10   1     0.01   0.00  -0.00     0.00   0.00  -0.00    -0.01  -0.01  -0.00
  11   1     0.00  -0.01   0.01    -0.00  -0.00   0.01     0.00  -0.03   0.04
  12   1     0.00   0.02   0.03    -0.00   0.01   0.01     0.00   0.02   0.03
  13   1    -0.00  -0.10  -0.13    -0.01  -0.12  -0.17    -0.01  -0.09  -0.10
  14   1    -0.00   0.08  -0.11     0.00  -0.05   0.09    -0.01   0.21  -0.30
  15   1     0.00  -0.05   0.09    -0.01   0.15  -0.25    -0.01   0.16  -0.23
  16   1    -0.01  -0.22  -0.29     0.01   0.12   0.17    -0.01  -0.16  -0.19
  17   1     0.00   0.17   0.26     0.00   0.11   0.15    -0.01  -0.24  -0.32
  18   1    -0.01   0.23  -0.36    -0.00   0.08  -0.13     0.00  -0.01   0.04
  19   1    -0.00   0.00   0.01    -0.00  -0.25  -0.35     0.00  -0.01  -0.01
  20   1    -0.00   0.01  -0.01     0.00  -0.28   0.47     0.00  -0.01   0.01
  21   1     0.00  -0.18  -0.26    -0.00   0.08   0.12    -0.01   0.24   0.33
  22   1    -0.01  -0.23   0.37     0.00   0.07  -0.11     0.00   0.02  -0.06
  23   1    -0.01   0.21   0.28    -0.01   0.12   0.17    -0.01   0.16   0.20
  24   1     0.00   0.04  -0.08     0.01   0.17  -0.27    -0.01  -0.15   0.22
  25   1    -0.00  -0.08   0.11    -0.00  -0.04   0.08    -0.01  -0.20   0.30
  26   1    -0.00   0.11   0.14     0.01  -0.13  -0.17    -0.00   0.09   0.10
  27   1     0.00   0.01  -0.01     0.00  -0.01   0.01     0.00   0.03  -0.04
  28   1     0.01  -0.00   0.00    -0.00   0.00  -0.00    -0.01   0.01   0.00
  29   1     0.00  -0.02  -0.03     0.00   0.01   0.01     0.00  -0.02  -0.03
                     70                     71                     72
                        a                      a                      a 
 Frequencies --  2975.2285              2975.3408              2978.7761
 Red. masses --     1.4700                 1.5087                 1.6520
 Frc consts  --     0.0000                 0.0000                 0.0000
 IR Inten    --    16.6840                 0.3563                91.3768
 Raman Activ --     0.0000                 0.0000                 0.0000
 Depolar     --     0.0000                 0.0000                 0.0000
 Atom AN      X      Y      Z        X      Y      Z        X      Y      Z
   1   6     0.00   0.01   0.00    -0.00  -0.00  -0.01     0.01   0.01  -0.01
   2   6    -0.00  -0.01  -0.02     0.00   0.09   0.04     0.00  -0.10   0.04
   3   6    -0.00  -0.10  -0.02     0.00  -0.09   0.05     0.00   0.00   0.06
   4   6     0.00   0.09  -0.03     0.00  -0.04   0.02     0.00   0.04   0.07
   5   6    -0.00  -0.03  -0.03    -0.00   0.00  -0.00     0.00   0.09   0.07
   6   6    -0.00   0.10  -0.03     0.00   0.03  -0.02    -0.00   0.04   0.07
   7   6     0.00  -0.09  -0.02     0.00   0.10  -0.05    -0.00   0.00   0.06
   8   6     0.00  -0.02  -0.03     0.00  -0.09  -0.04    -0.00  -0.10   0.04
   9   6    -0.00   0.01   0.00    -0.00   0.00   0.01    -0.01   0.01  -0.01
  10   1    -0.01  -0.01   0.00     0.01   0.01  -0.00    -0.03  -0.02   0.00
  11   1     0.00  -0.00   0.01    -0.00  -0.01   0.01     0.00  -0.03   0.04
  12   1    -0.00  -0.02  -0.02    -0.00   0.01   0.02     0.00  -0.00  -0.01
  13   1     0.00   0.03   0.04    -0.01  -0.23  -0.32     0.01   0.15   0.22
  14   1     0.00  -0.02   0.03     0.01  -0.11   0.18    -0.02   0.23  -0.36
  15   1    -0.01   0.15  -0.26    -0.01   0.22  -0.36    -0.00   0.07  -0.10
  16   1     0.01   0.23   0.32     0.01   0.13   0.19    -0.00  -0.09  -0.11
  17   1    -0.00  -0.16  -0.23     0.00   0.05   0.08    -0.00  -0.16  -0.21
  18   1     0.01  -0.20   0.33    -0.00   0.09  -0.15    -0.00   0.04  -0.04
  19   1     0.00   0.11   0.14     0.00  -0.01  -0.01    -0.00  -0.26  -0.34
  20   1     0.00   0.02  -0.03     0.00  -0.01   0.01     0.00  -0.05   0.10
  21   1     0.00  -0.16  -0.23     0.00  -0.03  -0.04     0.01  -0.16  -0.21
  22   1    -0.01  -0.21   0.34    -0.00  -0.07   0.11     0.00   0.04  -0.04
  23   1    -0.01   0.22   0.30     0.01  -0.15  -0.22     0.00  -0.09  -0.11
  24   1     0.01   0.13  -0.22    -0.01  -0.24   0.38     0.00   0.07  -0.10
  25   1     0.00  -0.02   0.02     0.01   0.11  -0.18     0.02   0.23  -0.37
  26   1    -0.00   0.06   0.08    -0.01   0.22   0.31    -0.01   0.15   0.22
  27   1    -0.00  -0.00   0.01    -0.00   0.01  -0.01    -0.00  -0.03   0.04
  28   1     0.01  -0.01   0.00     0.01  -0.01   0.00     0.03  -0.02   0.00
  29   1     0.00  -0.02  -0.03    -0.00  -0.01  -0.02    -0.00  -0.00  -0.01
                     73                     74                     75
                        a                      a                      a 
 Frequencies --  2979.9114              2983.9388              2990.0502
 Red. masses --     1.8603                 1.5178                 1.5278
 Frc consts  --     0.0000                 0.0000                 0.0000
 IR Inten    --   217.3646                 0.0044               253.1971
 Raman Activ --     0.0000                 0.0000                 0.0000
 Depolar     --     0.0000                 0.0000                 0.0000
 Atom AN      X      Y      Z        X      Y      Z        X      Y      Z
   1   6    -0.00  -0.00  -0.01     0.01   0.02  -0.00    -0.01  -0.02   0.00
   2   6     0.00   0.06   0.07    -0.00  -0.11  -0.00     0.00   0.06  -0.00
   3   6     0.00  -0.02   0.09    -0.00  -0.08   0.00    -0.00   0.08  -0.00
   4   6     0.00   0.01   0.11     0.00  -0.06  -0.00     0.00   0.09  -0.00
   5   6     0.00  -0.06   0.12    -0.00   0.00  -0.00    -0.00   0.10  -0.01
   6   6    -0.00   0.01   0.11     0.00   0.06   0.00    -0.00   0.09  -0.00
   7   6    -0.00  -0.02   0.09    -0.00   0.08  -0.00     0.00   0.08  -0.00
   8   6    -0.00   0.06   0.06    -0.00   0.11   0.00    -0.00   0.06  -0.00
   9   6     0.00  -0.00  -0.01     0.01  -0.02   0.00     0.01  -0.02   0.00
  10   1     0.01   0.01  -0.00    -0.04  -0.03   0.00     0.04   0.02  -0.00
  11   1    -0.00  -0.02   0.02     0.00  -0.03   0.04    -0.00   0.02  -0.04
  12   1     0.00   0.03   0.04     0.00  -0.03  -0.04     0.00   0.03   0.04
  13   1    -0.01  -0.21  -0.29     0.01   0.21   0.31    -0.01  -0.12  -0.17
  14   1     0.00  -0.03   0.06    -0.01   0.19  -0.30     0.01  -0.11   0.17
  15   1    -0.01   0.16  -0.24    -0.01   0.13  -0.23     0.01  -0.12   0.21
  16   1    -0.00  -0.08  -0.09     0.01   0.15   0.21    -0.01  -0.13  -0.19
  17   1    -0.00  -0.16  -0.21     0.00   0.11   0.16    -0.01  -0.17  -0.25
  18   1    -0.00   0.12  -0.16    -0.00   0.09  -0.15     0.00  -0.15   0.25
  19   1    -0.00  -0.03  -0.01     0.00   0.00   0.00    -0.00  -0.18  -0.24
  20   1    -0.00   0.26  -0.42     0.00  -0.00   0.00     0.00  -0.16   0.27
  21   1     0.00  -0.16  -0.21     0.00  -0.11  -0.16     0.01  -0.17  -0.25
  22   1     0.00   0.12  -0.16    -0.00  -0.09   0.15    -0.00  -0.15   0.25
  23   1     0.00  -0.08  -0.09     0.01  -0.15  -0.21     0.01  -0.13  -0.19
  24   1     0.01   0.15  -0.23    -0.01  -0.13   0.23    -0.01  -0.12   0.21
  25   1    -0.00  -0.02   0.06    -0.01  -0.18   0.30    -0.01  -0.11   0.17
  26   1     0.01  -0.21  -0.29     0.01  -0.21  -0.31     0.01  -0.12  -0.17
  27   1     0.00  -0.02   0.02     0.00   0.02  -0.04     0.00   0.02  -0.04
  28   1    -0.01   0.01  -0.00    -0.04   0.03  -0.00    -0.04   0.02  -0.00
  29   1    -0.00   0.03   0.04     0.00   0.03   0.04    -0.00   0.03   0.04
                     76                     77                     78
                        a                      a                      a 
 Frequencies --  3029.8007              3029.9383              3032.3865
 Red. masses --     1.9566                 1.9568                 1.9187
 Frc consts  --     0.0000                 0.0000                 0.0000
 IR Inten    --     0.7331               122.2859                17.3452
 Raman Activ --     0.0000                 0.0000                 0.0000
 Depolar     --     0.0000                 0.0000                 0.0000
 Atom AN      X      Y      Z        X      Y      Z        X      Y      Z
   1   6    -0.02  -0.03  -0.21    -0.02  -0.03  -0.20    -0.10  -0.18   0.03
   2   6    -0.00  -0.00  -0.03    -0.00  -0.00  -0.03    -0.00  -0.02   0.00
   3   6    -0.00  -0.00  -0.01    -0.00  -0.00  -0.01    -0.00  -0.01   0.00
   4   6    -0.00  -0.00  -0.00    -0.00  -0.00  -0.00    -0.00  -0.00   0.00
   5   6    -0.00  -0.00  -0.00    -0.00  -0.00  -0.00    -0.00  -0.00   0.00
   6   6    -0.00   0.00   0.00     0.00  -0.00  -0.00    -0.00   0.00  -0.00
   7   6    -0.00   0.00   0.01     0.00  -0.00  -0.01    -0.00   0.01  -0.00
   8   6    -0.00   0.00   0.03     0.00  -0.00  -0.03    -0.00   0.02  -0.00
   9   6    -0.02   0.03   0.20     0.02  -0.03  -0.21    -0.09   0.17  -0.03
  10   1     0.03   0.02  -0.03     0.03   0.02  -0.03     0.38   0.26  -0.02
  11   1     0.02  -0.26   0.35     0.02  -0.24   0.32    -0.03   0.21  -0.35
  12   1     0.01   0.33   0.42     0.01   0.31   0.39    -0.01   0.15   0.25
  13   1     0.00   0.04   0.06     0.00   0.04   0.05     0.00   0.03   0.04
  14   1     0.00  -0.03   0.04     0.00  -0.03   0.04    -0.00   0.03  -0.05
  15   1    -0.00  -0.01   0.01    -0.00  -0.01   0.01     0.00   0.02  -0.03
  16   1     0.00   0.02   0.02     0.00   0.02   0.02     0.00   0.02   0.03
  17   1    -0.00   0.00   0.01    -0.00   0.01   0.01    -0.00   0.00   0.01
  18   1     0.00  -0.00   0.00     0.00  -0.00   0.01    -0.00   0.00  -0.01
  19   1     0.00   0.00   0.00    -0.00   0.01   0.01     0.00   0.00   0.00
  20   1    -0.00  -0.00   0.00     0.00  -0.00   0.00     0.00   0.00  -0.00
  21   1    -0.00  -0.00  -0.01     0.00   0.01   0.01    -0.00  -0.00  -0.01
  22   1     0.00   0.00  -0.00    -0.00  -0.00   0.01    -0.00  -0.00   0.01
  23   1     0.00  -0.01  -0.02    -0.00   0.02   0.02     0.00  -0.02  -0.02
  24   1    -0.00   0.01  -0.01     0.00  -0.01   0.01     0.00  -0.02   0.03
  25   1     0.00   0.03  -0.04    -0.00  -0.03   0.04    -0.00  -0.03   0.05
  26   1     0.00  -0.04  -0.05    -0.00   0.04   0.06     0.00  -0.03  -0.04
  27   1     0.02   0.24  -0.33    -0.02  -0.26   0.35    -0.03  -0.20   0.34
  28   1     0.03  -0.02   0.03    -0.03   0.02  -0.03     0.37  -0.25   0.02
  29   1     0.01  -0.31  -0.39    -0.01   0.33   0.42    -0.01  -0.15  -0.24
                     79                     80                     81
                        a                      a                      a 
 Frequencies --  3032.5709              3037.7763              3038.0672
 Red. masses --     1.9161                 1.2751                 1.2764
 Frc consts  --     0.0000                 0.0000                 0.0000
 IR Inten    --   105.0065                60.4967                 5.7303
 Raman Activ --     0.0000                 0.0000                 0.0000
 Depolar     --     0.0000                 0.0000                 0.0000
 Atom AN      X      Y      Z        X      Y      Z        X      Y      Z
   1   6    -0.09  -0.17   0.03    -0.11   0.02  -0.00     0.11  -0.02   0.00
   2   6    -0.00  -0.02   0.00    -0.00   0.00  -0.00     0.00  -0.00   0.00
   3   6    -0.00  -0.01   0.00     0.00   0.00  -0.00    -0.00  -0.00   0.00
   4   6    -0.00  -0.00   0.00    -0.00   0.00  -0.00     0.00   0.00   0.00
   5   6     0.00  -0.00   0.00     0.00   0.00  -0.00     0.00  -0.00   0.00
   6   6     0.00  -0.00   0.00    -0.00  -0.00   0.00    -0.00   0.00   0.00
   7   6     0.00  -0.01   0.00     0.00  -0.00   0.00     0.00  -0.00   0.00
   8   6     0.00  -0.02   0.00    -0.00  -0.00   0.00    -0.00  -0.00   0.00
   9   6     0.10  -0.18   0.03    -0.11  -0.02   0.00    -0.11  -0.02   0.00
  10   1     0.37   0.25  -0.02     0.41   0.31  -0.03    -0.40  -0.30   0.03
  11   1    -0.03   0.21  -0.34     0.00  -0.20   0.30    -0.00   0.19  -0.29
  12   1    -0.01   0.15   0.24    -0.02  -0.20  -0.26     0.02   0.19   0.26
  13   1     0.00   0.03   0.04    -0.00  -0.00  -0.00     0.00   0.00   0.00
  14   1    -0.00   0.03  -0.05    -0.00  -0.00   0.01     0.00   0.00  -0.00
  15   1     0.00   0.02  -0.03     0.00  -0.00   0.01    -0.00   0.00  -0.01
  16   1     0.00   0.02   0.03    -0.00  -0.00  -0.00     0.00   0.00   0.01
  17   1    -0.00   0.01   0.01     0.00  -0.00  -0.00    -0.00  -0.00  -0.00
  18   1    -0.00   0.01  -0.01     0.00  -0.00   0.00    -0.00  -0.00   0.00
  19   1    -0.00   0.01   0.01     0.00  -0.00  -0.00     0.00   0.00   0.00
  20   1    -0.00   0.01  -0.01     0.00  -0.00   0.00    -0.00   0.00  -0.01
  21   1     0.00   0.01   0.01     0.00   0.00   0.00     0.00  -0.00  -0.00
  22   1     0.00   0.01  -0.01     0.00   0.00  -0.00     0.00  -0.00   0.00
  23   1    -0.00   0.02   0.03    -0.00   0.00   0.00    -0.00   0.00   0.01
  24   1    -0.00   0.02  -0.03     0.00   0.00  -0.01     0.00   0.00  -0.01
  25   1     0.00   0.03  -0.05    -0.00   0.00  -0.01    -0.00   0.00  -0.00
  26   1    -0.00   0.03   0.04    -0.00   0.00   0.00    -0.00   0.00   0.00
  27   1     0.03   0.21  -0.34     0.00   0.19  -0.29     0.00   0.20  -0.30
  28   1    -0.37   0.26  -0.02     0.40  -0.30   0.03     0.41  -0.31   0.03
  29   1     0.01   0.16   0.25    -0.02   0.19   0.26    -0.02   0.20   0.26
