 Entering Gaussian System
 *********************************************
 Gaussian 98:
 frequency output generated by the xtb code
 *********************************************
                         Standard orientation:
 --------------------------------------------------------------------
  Center     Atomic     Atomic              Coordinates (Angstroms)
  Number     Number      Type              X           Y           Z
 --------------------------------------------------------------------
    1          6             0       -5.056815    0.380203    0.076596
    2          6             0       -3.798574   -0.478421    0.039190
    3          6             0       -2.532326    0.370860   -0.037785
    4          6             0       -1.266368   -0.482143   -0.040027
    5          6             0       -0.000017    0.369155   -0.085517
    6          6             0        1.266366   -0.482132   -0.040643
    7          6             0        2.532274    0.370938   -0.035593
    8          6             0        3.798412   -0.478366    0.042783
    9          6             0        5.057034    0.379991    0.072623
   10          1             0       -5.945930   -0.243557    0.133051
   11          1             0       -5.125309    0.996050   -0.817602
   12          1             0       -5.043178    1.037627    0.943376
   13          1             0       -3.838816   -1.145524   -0.825019
   14          1             0       -3.758838   -1.101941    0.935519
   15          1             0       -2.560214    0.980285   -0.944306
   16          1             0       -2.504708    1.052269    0.816149
   17          1             0       -1.282924   -1.153993   -0.901620
   18          1             0       -1.249715   -1.102179    0.859770
   19          1             0        0.000171    1.057542    0.763254
   20          1             0       -0.000241    0.971396   -0.997196
   21          1             0        1.283738   -1.152096   -0.903681
   22          1             0        1.248972   -1.104140    0.857785
   23          1             0        2.503259    1.051740    0.818772
   24          1             0        2.561623    0.981003   -0.941645
   25          1             0        3.760589   -1.097295    0.942360
   26          1             0        3.836366   -1.149876   -0.818120
   27          1             0        5.124083    0.990173   -0.825559
   28          1             0        5.946016   -0.243752    0.131297
   29          1             0        5.045272    1.042861    0.935270
 --------------------------------------------------------------------
     1 basis functions        1 primitive gaussians
     1 alpha electrons        1 beta electrons
 
 Harmonic frequencies (cm**-1), IR intensities (KM/Mole),
 Raman scattering activities (A**4/amu), Raman depolarization ratios,
 reduced masses (AMU), force constants (mDyne/A) and normal coordinates:
                      1                      2                      3
                        a                      a                      a 
 Frequencies --    36.3277                54.5356                64.5881
 Red. masses --    99.0000                99.0000                99.0000
 Frc consts  --    99.0000                99.0000                99.0000
 IR Inten    --    99.0000                99.0000                99.0000
 Raman Activ --     0.0000                 0.0000                 0.0000
 Depolar     --     0.0000                 0.0000                 0.0000
 Atom AN      X      Y      Z        X      Y      Z        X      Y      Z
   1   6    -0.03  -0.02  -0.41     0.01  -0.01   0.22     0.10   0.41  -0.00
   2   6    -0.01  -0.01  -0.17    -0.01  -0.01  -0.33    -0.09   0.13  -0.04
   3   6    -0.00   0.01   0.15     0.00   0.01   0.09     0.07  -0.12   0.02
   4   6     0.00   0.02   0.26    -0.00   0.00  -0.15    -0.04  -0.29   0.01
   5   6     0.00   0.02   0.40     0.00   0.00  -0.00     0.00  -0.35   0.03
   6   6    -0.00   0.02   0.26    -0.00   0.00   0.15     0.04  -0.29   0.01
   7   6     0.00   0.01   0.15     0.00  -0.01  -0.09    -0.07  -0.12   0.02
   8   6     0.01  -0.01  -0.17    -0.01   0.01   0.33     0.09   0.13  -0.04
   9   6     0.03  -0.02  -0.41     0.01  -0.00  -0.22    -0.10   0.41  -0.01
  10   1    -0.01  -0.01  -0.19    -0.00  -0.01  -0.04    -0.01   0.18  -0.02
  11   1     0.05   0.01  -0.11     0.00   0.16   0.18     0.08   0.14   0.01
  12   1    -0.07  -0.02  -0.11     0.01  -0.16   0.18     0.07   0.10   0.01
  13   1     0.05   0.01  -0.06    -0.02   0.14  -0.21    -0.07   0.05  -0.02
  14   1    -0.06  -0.02  -0.06     0.01  -0.15  -0.20    -0.07   0.02  -0.02
  15   1     0.04   0.03   0.06     0.02   0.11   0.10     0.06  -0.02   0.01
  16   1    -0.05  -0.02   0.07    -0.01  -0.10   0.11     0.05  -0.05   0.01
  17   1     0.03   0.01   0.07    -0.01   0.06  -0.09    -0.03  -0.08  -0.00
  18   1    -0.02  -0.01   0.07     0.01  -0.06  -0.09    -0.03  -0.09  -0.00
  19   1     0.00  -0.03   0.14    -0.03   0.00  -0.00    -0.00  -0.11   0.01
  20   1     0.00   0.04   0.14     0.03   0.00  -0.00     0.00  -0.10   0.01
  21   1    -0.03   0.01   0.07    -0.01  -0.06   0.09     0.03  -0.08  -0.00
  22   1     0.02  -0.01   0.07     0.01   0.06   0.09     0.03  -0.09  -0.00
  23   1     0.05  -0.02   0.07    -0.01   0.10  -0.11    -0.05  -0.04   0.01
  24   1    -0.04   0.03   0.06     0.02  -0.11  -0.10    -0.06  -0.02   0.01
  25   1     0.06  -0.02  -0.06     0.01   0.15   0.20     0.07   0.02  -0.02
  26   1    -0.05   0.01  -0.06    -0.02  -0.14   0.21     0.07   0.05  -0.02
  27   1    -0.05   0.01  -0.11     0.00  -0.16  -0.17    -0.08   0.14   0.01
  28   1     0.01  -0.01  -0.19    -0.00   0.00   0.04     0.01   0.18  -0.02
  29   1     0.07  -0.02  -0.11     0.01   0.16  -0.18    -0.07   0.11   0.01
                      4                      5                      6
                        a                      a                      a 
 Frequencies --    89.5939               106.3755               146.1527
 Red. masses --    99.0000                99.0000                99.0000
 Frc consts  --    99.0000                99.0000                99.0000
 IR Inten    --    99.0000                99.0000                99.0000
 Raman Activ --     0.0000                 0.0000                 0.0000
 Depolar     --     0.0000                 0.0000                 0.0000
 Atom AN      X      Y      Z        X      Y      Z        X      Y      Z
   1   6     0.02   0.01   0.25     0.00  -0.02   0.17    -0.02  -0.03  -0.09
   2   6     0.00  -0.00  -0.01    -0.01  -0.01  -0.29     0.02   0.02   0.17
   3   6    -0.01  -0.02  -0.45    -0.01   0.01  -0.10     0.00   0.05   0.15
   4   6    -0.01  -0.01  -0.25     0.00   0.02   0.29    -0.01   0.02  -0.43
   5   6    -0.00   0.00  -0.00     0.00   0.00  -0.16     0.02   0.00   0.00
   6   6    -0.01   0.01   0.25    -0.00   0.02   0.29    -0.01  -0.02   0.43
   7   6    -0.01   0.02   0.45     0.01   0.00  -0.10     0.00  -0.05  -0.15
   8   6     0.00   0.00   0.01     0.01  -0.01  -0.29     0.02  -0.02  -0.17
   9   6     0.02  -0.01  -0.25    -0.00  -0.01   0.17    -0.02   0.03   0.09
  10   1     0.01   0.01   0.17    -0.00  -0.01  -0.04     0.00  -0.02   0.03
  11   1    -0.07  -0.03   0.06    -0.00   0.13   0.14    -0.02  -0.09  -0.08
  12   1     0.08   0.03   0.05     0.01  -0.13   0.15    -0.01   0.07  -0.09
  13   1    -0.07  -0.03   0.02    -0.03   0.09  -0.15     0.04  -0.03   0.08
  14   1     0.07   0.03   0.02     0.02  -0.10  -0.15    -0.01   0.04   0.08
  15   1    -0.03  -0.09  -0.19     0.05  -0.03  -0.05    -0.06   0.10   0.11
  16   1     0.02   0.07  -0.20    -0.06   0.03  -0.05     0.06  -0.07   0.11
  17   1     0.04  -0.00  -0.07    -0.00  -0.11   0.18    -0.02   0.15  -0.23
  18   1    -0.05  -0.00  -0.07     0.01   0.13   0.17     0.00  -0.14  -0.23
  19   1    -0.05   0.00  -0.00     0.00   0.13  -0.15    -0.07  -0.00   0.00
  20   1     0.05   0.00  -0.00     0.00  -0.14  -0.14     0.09   0.00   0.00
  21   1     0.04   0.00   0.07     0.00  -0.11   0.18    -0.02  -0.15   0.23
  22   1    -0.05   0.00   0.07    -0.01   0.13   0.17     0.00   0.14   0.23
  23   1     0.02  -0.07   0.19     0.06   0.03  -0.05     0.06   0.07  -0.11
  24   1    -0.03   0.09   0.19    -0.05  -0.03  -0.05    -0.06  -0.10  -0.11
  25   1     0.07  -0.03  -0.02    -0.02  -0.10  -0.15    -0.01  -0.04  -0.08
  26   1    -0.07   0.03  -0.02     0.03   0.09  -0.15     0.04   0.03  -0.08
  27   1    -0.07   0.03  -0.06     0.00   0.13   0.14    -0.02   0.09   0.08
  28   1     0.01  -0.01  -0.17     0.00  -0.01  -0.04     0.00   0.02  -0.03
  29   1     0.08  -0.03  -0.05    -0.01  -0.13   0.15    -0.01  -0.07   0.09
                      7                      8                      9
                        a                      a                      a 
 Frequencies --   140.8462               233.6386               233.5004
 Red. masses --    99.0000                99.0000                99.0000
 Frc consts  --    99.0000                99.0000                99.0000
 IR Inten    --    99.0000                99.0000                99.0000
 Raman Activ --     0.0000                 0.0000                 0.0000
 Depolar     --     0.0000                 0.0000                 0.0000
 Atom AN      X      Y      Z        X      Y      Z        X      Y      Z
   1   6    -0.01  -0.01  -0.13    -0.00   0.00   0.04     0.03   0.00  -0.03
   2   6     0.01   0.01   0.08    -0.01  -0.00  -0.21     0.03  -0.01   0.17
   3   6     0.01   0.02   0.36     0.00   0.00   0.10     0.01  -0.01  -0.10
   4   6    -0.00   0.00  -0.03     0.00  -0.00   0.09     0.01   0.01  -0.05
   5   6     0.00  -0.03  -0.53    -0.00  -0.00  -0.00     0.00   0.02   0.04
   6   6     0.00  -0.00  -0.03     0.00   0.00  -0.08    -0.01   0.00  -0.06
   7   6    -0.01   0.02   0.36     0.01   0.00  -0.08    -0.01  -0.01  -0.11
   8   6    -0.01   0.00   0.08    -0.01   0.01   0.18    -0.03  -0.01   0.20
   9   6     0.01  -0.01  -0.13     0.01  -0.00  -0.03    -0.03   0.00  -0.03
  10   1    -0.00  -0.01  -0.12     0.02   0.01   0.42    -0.01  -0.00  -0.36
  11   1     0.06   0.02  -0.02    -0.24  -0.25  -0.14     0.22   0.22   0.13
  12   1    -0.07  -0.03  -0.02     0.22   0.24  -0.18    -0.18  -0.21   0.16
  13   1     0.05   0.02   0.00    -0.01   0.06  -0.11     0.01  -0.06   0.09
  14   1    -0.05  -0.02   0.01    -0.01  -0.07  -0.10     0.01   0.05   0.09
  15   1    -0.01   0.10   0.17     0.03   0.06   0.07    -0.02  -0.06  -0.07
  16   1     0.02  -0.08   0.17    -0.03  -0.05   0.07     0.02   0.05  -0.07
  17   1    -0.09  -0.02   0.01    -0.01  -0.01   0.03     0.02   0.01  -0.02
  18   1     0.08   0.02   0.00     0.01   0.01   0.03    -0.01  -0.00  -0.02
  19   1     0.00   0.13  -0.26     0.02   0.00  -0.00     0.00  -0.02   0.03
  20   1     0.00  -0.15  -0.25    -0.02  -0.00  -0.00    -0.00   0.04   0.03
  21   1     0.09  -0.02   0.01    -0.01   0.01  -0.03    -0.02   0.01  -0.02
  22   1    -0.08   0.02   0.00     0.01  -0.01  -0.03     0.01  -0.01  -0.02
  23   1    -0.02  -0.08   0.17    -0.02   0.05  -0.06    -0.03   0.06  -0.08
  24   1     0.01   0.10   0.17     0.03  -0.05  -0.06     0.03  -0.07  -0.07
  25   1     0.05  -0.02   0.01    -0.00   0.06   0.09    -0.01   0.06   0.10
  26   1    -0.05   0.02   0.00    -0.00  -0.05   0.10    -0.01  -0.06   0.11
  27   1    -0.06   0.02  -0.02    -0.20   0.22   0.13    -0.25   0.25   0.14
  28   1     0.00  -0.01  -0.12     0.02  -0.01  -0.37     0.01  -0.00  -0.41
  29   1     0.07  -0.03  -0.02     0.20  -0.21   0.16     0.20  -0.24   0.18
                     10                     11                     12
                        a                      a                      a 
 Frequencies --   164.8663               245.5560               295.8476
 Red. masses --    99.0000                99.0000                99.0000
 Frc consts  --    99.0000                99.0000                99.0000
 IR Inten    --    99.0000                99.0000                99.0000
 Raman Activ --     0.0000                 0.0000                 0.0000
 Depolar     --     0.0000                 0.0000                 0.0000
 Atom AN      X      Y      Z        X      Y      Z        X      Y      Z
   1   6    -0.14  -0.28   0.03    -0.44  -0.02   0.02     0.04   0.16  -0.01
   2   6     0.14   0.14  -0.02    -0.32   0.11   0.02    -0.23  -0.27   0.01
   3   6    -0.00   0.36  -0.04    -0.22   0.03  -0.02    -0.21  -0.26   0.02
   4   6    -0.04   0.29   0.04    -0.17  -0.03  -0.02     0.08   0.15  -0.01
   5   6     0.13   0.00   0.00     0.00  -0.15  -0.01    -0.00   0.35  -0.03
   6   6    -0.04  -0.29  -0.04     0.17  -0.03  -0.02    -0.08   0.15  -0.01
   7   6    -0.00  -0.36   0.04     0.22   0.03  -0.01     0.21  -0.26   0.02
   8   6     0.14  -0.14   0.03     0.32   0.11   0.02     0.23  -0.27   0.01
   9   6    -0.14   0.28  -0.03     0.44  -0.02   0.02    -0.04   0.16  -0.01
  10   1     0.02  -0.17   0.01    -0.10  -0.05  -0.02    -0.06   0.16   0.01
  11   1    -0.11  -0.08   0.01    -0.14   0.01   0.02     0.08   0.05  -0.01
  12   1    -0.10  -0.09   0.01    -0.17  -0.02   0.02     0.09   0.06  -0.01
  13   1     0.09   0.04  -0.01    -0.10   0.02   0.01    -0.11  -0.07  -0.00
  14   1     0.09   0.04  -0.01    -0.09   0.03   0.01    -0.11  -0.08   0.00
  15   1    -0.01   0.09  -0.02    -0.06   0.00  -0.01    -0.10  -0.07   0.01
  16   1    -0.02   0.11  -0.02    -0.05   0.01  -0.01    -0.10  -0.08   0.01
  17   1    -0.04   0.06   0.03    -0.06  -0.01  -0.01     0.07   0.04  -0.00
  18   1    -0.04   0.10   0.02    -0.07  -0.01  -0.01     0.08   0.04  -0.00
  19   1     0.09  -0.00   0.00    -0.00  -0.04  -0.00     0.00   0.10  -0.01
  20   1     0.07   0.00   0.00     0.00  -0.04   0.00    -0.00   0.09  -0.01
  21   1    -0.04  -0.06  -0.03     0.06  -0.01  -0.01    -0.07   0.04  -0.00
  22   1    -0.04  -0.10  -0.02     0.06  -0.01  -0.01    -0.08   0.04  -0.00
  23   1    -0.02  -0.11   0.02     0.05   0.01  -0.01     0.10  -0.07   0.01
  24   1    -0.01  -0.09   0.02     0.06   0.00  -0.01     0.10  -0.07   0.01
  25   1     0.09  -0.04   0.01     0.09   0.03   0.01     0.11  -0.08   0.00
  26   1     0.09  -0.04   0.01     0.10   0.02   0.01     0.11  -0.07   0.00
  27   1    -0.11   0.08  -0.01     0.15   0.01   0.02    -0.09   0.05  -0.01
  28   1     0.02   0.17  -0.01     0.10  -0.05  -0.02     0.06   0.16   0.00
  29   1    -0.11   0.09  -0.01     0.17  -0.02   0.02    -0.09   0.05  -0.01
                     13                     14                     15
                        a                      a                      a 
 Frequencies --   399.5301               457.2275               768.6586
 Red. masses --    99.0000                99.0000                99.0000
 Frc consts  --    99.0000                99.0000                99.0000
 IR Inten    --    99.0000                99.0000                99.0000
 Raman Activ --     0.0000                 0.0000                 0.0000
 Depolar     --     0.0000                 0.0000                 0.0000
 Atom AN      X      Y      Z        X      Y      Z        X      Y      Z
   1   6     0.33   0.02  -0.01     0.17  -0.07  -0.00     0.00  -0.00   0.00
   2   6     0.07  -0.27   0.00     0.23   0.12  -0.01     0.00   0.00   0.04
   3   6    -0.22   0.10   0.01     0.10   0.13  -0.01     0.00   0.00   0.08
   4   6    -0.18   0.26   0.00    -0.26  -0.27   0.01     0.00   0.01   0.11
   5   6    -0.04   0.00   0.00    -0.48  -0.00  -0.00    -0.00   0.00   0.12
   6   6    -0.18  -0.26  -0.00    -0.26   0.27  -0.01    -0.00   0.00   0.11
   7   6    -0.22  -0.10  -0.01     0.10  -0.13   0.01    -0.00   0.00   0.08
   8   6     0.07   0.27  -0.01     0.23  -0.12   0.01    -0.00   0.00   0.04
   9   6     0.33  -0.02   0.01     0.17   0.07   0.00    -0.00  -0.00   0.00
  10   1     0.01   0.12  -0.00     0.07  -0.05  -0.00     0.00  -0.00  -0.01
  11   1     0.18   0.01  -0.01     0.03  -0.02  -0.00     0.03  -0.03  -0.02
  12   1     0.18   0.01  -0.01     0.02  -0.02   0.00    -0.03   0.03  -0.02
  13   1     0.03  -0.07  -0.00     0.09   0.03  -0.00     0.02   0.11  -0.08
  14   1     0.03  -0.07   0.00     0.09   0.03  -0.00    -0.03  -0.12  -0.07
  15   1    -0.12   0.03   0.00     0.07   0.03  -0.00     0.02  -0.21  -0.12
  16   1    -0.12   0.03   0.01     0.07   0.03   0.00    -0.03   0.19  -0.14
  17   1    -0.07   0.07   0.00    -0.10  -0.07   0.00     0.01   0.26  -0.18
  18   1    -0.07   0.07  -0.00    -0.10  -0.07   0.01    -0.02  -0.27  -0.16
  19   1     0.03  -0.00   0.00    -0.21   0.00  -0.00     0.00   0.28  -0.20
  20   1     0.03   0.00   0.00    -0.21  -0.00  -0.00    -0.00  -0.30  -0.17
  21   1    -0.07  -0.07  -0.00    -0.10   0.07  -0.00    -0.01   0.26  -0.18
  22   1    -0.07  -0.07  -0.00    -0.10   0.07  -0.01     0.02  -0.27  -0.16
  23   1    -0.12  -0.03  -0.00     0.07  -0.03  -0.00     0.03   0.19  -0.14
  24   1    -0.12  -0.03  -0.00     0.07  -0.03   0.00    -0.02  -0.21  -0.12
  25   1     0.03   0.07  -0.00     0.09  -0.03   0.00     0.03  -0.12  -0.07
  26   1     0.03   0.07   0.00     0.09  -0.03   0.00    -0.02   0.11  -0.08
  27   1     0.18  -0.01   0.01     0.03   0.02   0.00    -0.03  -0.03  -0.02
  28   1     0.01  -0.12   0.00     0.07   0.05   0.00    -0.00  -0.00  -0.01
  29   1     0.18  -0.01   0.01     0.03   0.02  -0.00     0.03   0.03  -0.02
                     16                     17                     18
                        a                      a                      a 
 Frequencies --   494.5256               771.3457               816.8309
 Red. masses --    99.0000                99.0000                99.0000
 Frc consts  --    99.0000                99.0000                99.0000
 IR Inten    --    99.0000                99.0000                99.0000
 Raman Activ --     0.0000                 0.0000                 0.0000
 Depolar     --     0.0000                 0.0000                 0.0000
 Atom AN      X      Y      Z        X      Y      Z        X      Y      Z
   1   6    -0.21   0.02   0.01    -0.00   0.00  -0.01    -0.00  -0.00  -0.05
   2   6    -0.03   0.18  -0.00    -0.00  -0.00  -0.10    -0.01  -0.00  -0.16
   3   6     0.26  -0.22   0.00    -0.00  -0.01  -0.13    -0.00   0.00   0.05
   4   6     0.33  -0.10  -0.00     0.00  -0.00  -0.09     0.00   0.00   0.18
   5   6    -0.00   0.30  -0.01     0.00   0.00   0.00     0.00   0.00  -0.00
   6   6    -0.33  -0.10  -0.00     0.00   0.00   0.09     0.00  -0.00  -0.18
   7   6    -0.26  -0.22   0.00    -0.00   0.01   0.13    -0.00  -0.00  -0.05
   8   6     0.03   0.18  -0.00    -0.00   0.00   0.10    -0.01   0.00   0.16
   9   6     0.21   0.02   0.01    -0.00  -0.00   0.01    -0.00   0.00   0.05
  10   1     0.00  -0.08   0.00     0.00   0.00   0.03     0.00   0.00   0.08
  11   1    -0.12   0.00   0.00    -0.07   0.07   0.05    -0.15   0.12   0.09
  12   1    -0.12  -0.00   0.01     0.07  -0.06   0.05     0.15  -0.12   0.08
  13   1    -0.03   0.05   0.00    -0.03  -0.21   0.14     0.06  -0.22   0.13
  14   1    -0.04   0.04  -0.00     0.04   0.22   0.13    -0.04   0.23   0.12
  15   1     0.12  -0.06   0.00     0.01   0.28   0.16     0.13  -0.06  -0.03
  16   1     0.12  -0.06  -0.00     0.00  -0.26   0.18    -0.13   0.06  -0.03
  17   1     0.16  -0.03  -0.00     0.05  -0.18   0.12    -0.02   0.23  -0.13
  18   1     0.16  -0.02   0.00    -0.04   0.19   0.11     0.01  -0.24  -0.12
  19   1     0.00   0.08   0.00    -0.06   0.00  -0.00     0.13   0.00  -0.00
  20   1    -0.00   0.08  -0.01     0.07  -0.00  -0.00    -0.13   0.00   0.00
  21   1    -0.16  -0.03  -0.00     0.05   0.18  -0.12    -0.02  -0.23   0.13
  22   1    -0.16  -0.02   0.00    -0.04  -0.19  -0.11     0.01   0.24   0.12
  23   1    -0.12  -0.06  -0.00     0.00   0.27  -0.18    -0.13  -0.06   0.03
  24   1    -0.12  -0.06   0.00     0.01  -0.28  -0.16     0.13   0.06   0.03
  25   1     0.04   0.04  -0.00     0.04  -0.22  -0.13    -0.05  -0.23  -0.12
  26   1     0.03   0.05   0.00    -0.03   0.21  -0.15     0.06   0.22  -0.13
  27   1     0.12  -0.00   0.00    -0.06  -0.07  -0.05    -0.15  -0.12  -0.08
  28   1    -0.00  -0.08   0.00     0.00  -0.00  -0.03     0.00  -0.00  -0.08
  29   1     0.12  -0.00   0.01     0.07   0.06  -0.05     0.15   0.12  -0.08
                     19                     20                     21
                        a                      a                      a 
 Frequencies --   784.8100               866.7952              1504.7964
 Red. masses --    99.0000                99.0000                99.0000
 Frc consts  --    99.0000                99.0000                99.0000
 IR Inten    --    99.0000                99.0000                99.0000
 Raman Activ --     0.0000                 0.0000                 0.0000
 Depolar     --     0.0000                 0.0000                 0.0000
 Atom AN      X      Y      Z        X      Y      Z        X      Y      Z
   1   6     0.00  -0.00   0.02    -0.00  -0.00  -0.09     0.01   0.01   0.16
   2   6     0.01   0.00   0.15    -0.01  -0.00  -0.11     0.00   0.01   0.03
   3   6     0.00   0.01   0.09     0.01   0.01   0.19     0.00   0.00  -0.00
   4   6    -0.00  -0.00  -0.07     0.00   0.00   0.04     0.00   0.01  -0.00
   5   6    -0.00  -0.01  -0.15     0.00  -0.01  -0.20    -0.00  -0.00   0.00
   6   6     0.00  -0.00  -0.07    -0.00   0.00   0.04     0.00   0.01   0.00
   7   6    -0.00   0.01   0.09    -0.01   0.01   0.19    -0.00  -0.01   0.00
   8   6    -0.01   0.00   0.15     0.01  -0.00  -0.11     0.00   0.00  -0.03
   9   6    -0.00  -0.00   0.02     0.00  -0.00  -0.09     0.01  -0.01  -0.14
  10   1    -0.00  -0.00  -0.06     0.00   0.00   0.10    -0.03  -0.01  -0.52
  11   1     0.11  -0.10  -0.07    -0.17   0.14   0.09    -0.32  -0.11  -0.04
  12   1    -0.11   0.10  -0.07     0.18  -0.13   0.08     0.32   0.10  -0.07
  13   1     0.01   0.26  -0.16     0.14  -0.13   0.06    -0.01   0.00   0.01
  14   1    -0.02  -0.27  -0.15    -0.13   0.13   0.07     0.01  -0.03  -0.01
  15   1    -0.08  -0.16  -0.08     0.06  -0.20  -0.09     0.01  -0.01  -0.00
  16   1     0.07   0.16  -0.10    -0.07   0.19  -0.10    -0.01  -0.01   0.01
  17   1    -0.09  -0.11   0.07    -0.17   0.04  -0.02     0.00  -0.02   0.01
  18   1     0.09   0.11   0.06     0.16  -0.04  -0.02    -0.00  -0.02  -0.01
  19   1     0.00  -0.24   0.16     0.00  -0.21   0.12     0.00   0.01  -0.01
  20   1     0.00   0.25   0.13     0.00   0.22   0.10    -0.00   0.01   0.01
  21   1     0.09  -0.11   0.07     0.17   0.04  -0.02     0.00  -0.01   0.01
  22   1    -0.09   0.11   0.06    -0.16  -0.04  -0.02    -0.00  -0.02  -0.01
  23   1    -0.07   0.16  -0.10     0.07   0.19  -0.10    -0.01   0.02  -0.01
  24   1     0.08  -0.16  -0.09    -0.06  -0.20  -0.09     0.01   0.02   0.01
  25   1     0.02  -0.27  -0.15     0.13   0.13   0.07     0.01   0.00  -0.01
  26   1    -0.01   0.26  -0.17    -0.14  -0.13   0.06    -0.01  -0.02   0.01
  27   1    -0.11  -0.10  -0.07     0.17   0.14   0.09    -0.30   0.10   0.04
  28   1     0.00  -0.00  -0.06    -0.00   0.00   0.10    -0.02   0.01   0.48
  29   1     0.11   0.09  -0.07    -0.18  -0.13   0.08     0.30  -0.10   0.07
                     22                     23                     24
                        a                      a                      a 
 Frequencies --  1504.7673               925.3917              1507.9545
 Red. masses --    99.0000                99.0000                99.0000
 Frc consts  --    99.0000                99.0000                99.0000
 IR Inten    --    99.0000                99.0000                99.0000
 Raman Activ --     0.0000                 0.0000                 0.0000
 Depolar     --     0.0000                 0.0000                 0.0000
 Atom AN      X      Y      Z        X      Y      Z        X      Y      Z
   1   6    -0.01  -0.01  -0.14    -0.01  -0.00  -0.12     0.08   0.12  -0.01
   2   6    -0.00  -0.02  -0.03    -0.00   0.00  -0.01     0.03   0.08  -0.00
   3   6     0.00   0.00   0.00     0.01   0.01   0.18    -0.02   0.03  -0.00
   4   6    -0.00  -0.03   0.00    -0.00  -0.01  -0.18     0.01   0.00  -0.00
   5   6     0.00   0.01  -0.00    -0.00   0.00  -0.00    -0.00  -0.00   0.00
   6   6     0.00  -0.03   0.00    -0.00   0.01   0.18     0.01  -0.00   0.00
   7   6    -0.00   0.01   0.00     0.01  -0.01  -0.18    -0.02  -0.03   0.00
   8   6     0.00  -0.03  -0.03    -0.00   0.00   0.01     0.03  -0.08   0.00
   9   6     0.01  -0.01  -0.15    -0.01   0.00   0.12     0.08  -0.12   0.01
  10   1     0.03   0.00   0.47     0.00   0.00   0.10    -0.12   0.19   0.01
  11   1     0.29   0.11   0.04    -0.18   0.14   0.08    -0.10  -0.34  -0.23
  12   1    -0.28  -0.09   0.06     0.19  -0.13   0.07    -0.09  -0.34   0.26
  13   1     0.01   0.03  -0.03     0.21  -0.01  -0.00    -0.02  -0.09   0.08
  14   1    -0.01   0.06   0.03    -0.21   0.01   0.02    -0.03  -0.09  -0.07
  15   1    -0.01  -0.02  -0.01    -0.11  -0.17  -0.07     0.00  -0.07  -0.05
  16   1     0.01  -0.01   0.01     0.10   0.16  -0.09     0.01  -0.07   0.05
  17   1    -0.00   0.06  -0.05    -0.10  -0.16   0.08    -0.00   0.00  -0.00
  18   1     0.00   0.06   0.04     0.10   0.16   0.07    -0.00   0.00   0.00
  19   1     0.00  -0.03   0.03    -0.20   0.00   0.00    -0.00   0.00  -0.00
  20   1    -0.00  -0.04  -0.02     0.21   0.00  -0.00    -0.00   0.00   0.00
  21   1     0.00   0.06  -0.05    -0.10   0.16  -0.08    -0.00  -0.00   0.00
  22   1    -0.00   0.06   0.04     0.10  -0.16  -0.07    -0.00  -0.00  -0.00
  23   1    -0.02  -0.02   0.01     0.10  -0.16   0.09     0.01   0.07  -0.06
  24   1     0.01  -0.02  -0.01    -0.11   0.17   0.07     0.00   0.07   0.05
  25   1     0.01   0.06   0.03    -0.21  -0.01  -0.01    -0.03   0.09   0.07
  26   1    -0.01   0.03  -0.04     0.21   0.01   0.00    -0.02   0.09  -0.08
  27   1    -0.33   0.12   0.05    -0.18  -0.14  -0.08    -0.10   0.35   0.23
  28   1    -0.03   0.01   0.52     0.00  -0.00  -0.10    -0.12  -0.19  -0.01
  29   1     0.31  -0.09   0.07     0.18   0.13  -0.07    -0.09   0.34  -0.27
                     25                     26                     27
                        a                      a                      a 
 Frequencies --  1508.1087               981.3525              1198.8656
 Red. masses --    99.0000                99.0000                99.0000
 Frc consts  --    99.0000                99.0000                99.0000
 IR Inten    --    99.0000                99.0000                99.0000
 Raman Activ --     0.0000                 0.0000                 0.0000
 Depolar     --     0.0000                 0.0000                 0.0000
 Atom AN      X      Y      Z        X      Y      Z        X      Y      Z
   1   6    -0.08  -0.12   0.01    -0.01  -0.00  -0.12    -0.01  -0.01  -0.15
   2   6    -0.03  -0.06   0.00     0.00   0.00   0.09     0.01   0.01   0.24
   3   6     0.02  -0.05   0.00     0.00   0.00   0.03    -0.01  -0.01  -0.26
   4   6    -0.01   0.02  -0.00    -0.00  -0.00  -0.14     0.01   0.01   0.27
   5   6     0.00  -0.03   0.00     0.00   0.01   0.18     0.00  -0.01  -0.27
   6   6     0.01   0.02  -0.00     0.00  -0.00  -0.14    -0.01   0.01   0.27
   7   6    -0.02  -0.05   0.00    -0.00   0.00   0.03     0.01  -0.01  -0.26
   8   6     0.03  -0.06   0.00    -0.00   0.00   0.09    -0.01   0.01   0.24
   9   6     0.07  -0.12   0.01     0.01  -0.00  -0.12     0.01  -0.01  -0.15
  10   1     0.12  -0.18  -0.01     0.00   0.00   0.08     0.00   0.00   0.07
  11   1     0.10   0.34   0.23    -0.15   0.12   0.06    -0.11   0.10   0.04
  12   1     0.08   0.33  -0.26     0.16  -0.11   0.05     0.12  -0.10   0.04
  13   1     0.02   0.06  -0.05     0.22   0.07  -0.04     0.00   0.14  -0.05
  14   1     0.02   0.06   0.05    -0.22  -0.07  -0.02    -0.01  -0.14  -0.04
  15   1    -0.00   0.10   0.07    -0.26  -0.03  -0.00    -0.02   0.15   0.05
  16   1    -0.01   0.10  -0.08     0.25   0.03  -0.02     0.03  -0.15   0.06
  17   1     0.00  -0.05   0.04     0.17  -0.11   0.05     0.00   0.16  -0.06
  18   1     0.00  -0.05  -0.03    -0.16   0.12   0.05    -0.01  -0.16  -0.05
  19   1     0.00   0.07  -0.05    -0.00   0.15  -0.07     0.00  -0.16   0.06
  20   1     0.00   0.07   0.05    -0.00  -0.15  -0.06     0.00   0.17   0.05
  21   1    -0.00  -0.05   0.04    -0.17  -0.11   0.05    -0.00   0.16  -0.06
  22   1    -0.00  -0.05  -0.03     0.16   0.12   0.05     0.01  -0.16  -0.05
  23   1     0.01   0.10  -0.08    -0.25   0.03  -0.02    -0.03  -0.15   0.06
  24   1     0.00   0.10   0.07     0.26  -0.03  -0.00     0.02   0.15   0.05
  25   1    -0.02   0.06   0.05     0.22  -0.07  -0.02     0.01  -0.14  -0.04
  26   1    -0.02   0.06  -0.05    -0.22   0.07  -0.04    -0.01   0.14  -0.05
  27   1    -0.10   0.34   0.23     0.15   0.12   0.06     0.11   0.10   0.04
  28   1    -0.12  -0.18  -0.00    -0.00   0.00   0.08    -0.00   0.00   0.07
  29   1    -0.08   0.33  -0.26    -0.16  -0.11   0.06    -0.12  -0.10   0.04
                     28                     29                     30
                        a                      a                      a 
 Frequencies --  1024.4082              1213.4075              1497.5533
 Red. masses --    99.0000                99.0000                99.0000
 Frc consts  --    99.0000                99.0000                99.0000
 IR Inten    --    99.0000                99.0000                99.0000
 Raman Activ --     0.0000                 0.0000                 0.0000
 Depolar     --     0.0000                 0.0000                 0.0000
 Atom AN      X      Y      Z        X      Y      Z        X      Y      Z
   1   6     0.01   0.00   0.08     0.01   0.01   0.21    -0.00  -0.04  -0.00
   2   6    -0.01  -0.00  -0.10    -0.01  -0.01  -0.30    -0.01   0.16  -0.00
   3   6     0.00   0.00   0.08     0.01   0.01   0.23    -0.02   0.05  -0.00
   4   6    -0.00  -0.00  -0.04    -0.01  -0.01  -0.13     0.01  -0.09   0.00
   5   6     0.00   0.00   0.00     0.00  -0.00  -0.00    -0.00  -0.01   0.00
   6   6    -0.00   0.00   0.04    -0.01   0.01   0.13    -0.01  -0.09   0.00
   7   6     0.00  -0.00  -0.08     0.01  -0.01  -0.23     0.02   0.05  -0.00
   8   6    -0.01   0.00   0.10    -0.01   0.01   0.30     0.01   0.16  -0.00
   9   6     0.00  -0.00  -0.08     0.01  -0.01  -0.21     0.00  -0.04   0.00
  10   1    -0.00  -0.00  -0.05    -0.00  -0.00  -0.09     0.03  -0.04   0.00
  11   1     0.09  -0.07  -0.04     0.15  -0.13  -0.06     0.01   0.11   0.08
  12   1    -0.10   0.07  -0.03    -0.16   0.13  -0.05     0.00   0.11  -0.08
  13   1    -0.15  -0.08   0.04     0.07  -0.17   0.05     0.02  -0.31   0.24
  14   1     0.15   0.08   0.02    -0.06   0.17   0.05    -0.01  -0.32  -0.23
  15   1     0.24  -0.06  -0.03    -0.08  -0.13  -0.04     0.02  -0.08  -0.06
  16   1    -0.23   0.06  -0.02     0.08   0.13  -0.05     0.02  -0.08   0.07
  17   1    -0.29  -0.03   0.02     0.15  -0.08   0.02    -0.00   0.17  -0.13
  18   1     0.28   0.03   0.01    -0.14   0.08   0.02     0.00   0.18   0.12
  19   1    -0.30   0.00   0.00     0.14  -0.00  -0.00     0.00  -0.00  -0.00
  20   1     0.32   0.00  -0.00    -0.14  -0.00   0.00    -0.00  -0.00   0.00
  21   1    -0.29   0.03  -0.02     0.15   0.08  -0.02     0.00   0.17  -0.13
  22   1     0.28  -0.03  -0.01    -0.14  -0.08  -0.03    -0.00   0.18   0.12
  23   1    -0.23  -0.06   0.02     0.08  -0.13   0.05    -0.02  -0.08   0.07
  24   1     0.24   0.06   0.03    -0.08   0.13   0.04    -0.02  -0.08  -0.06
  25   1     0.15  -0.08  -0.02    -0.06  -0.17  -0.05     0.00  -0.32  -0.22
  26   1    -0.15   0.08  -0.04     0.07   0.17  -0.06    -0.02  -0.31   0.24
  27   1     0.09   0.07   0.04     0.15   0.13   0.06    -0.01   0.11   0.08
  28   1    -0.00   0.00   0.05    -0.00   0.00   0.09    -0.03  -0.04   0.00
  29   1    -0.10  -0.07   0.03    -0.16  -0.13   0.05    -0.00   0.11  -0.08
                     31                     32                     33
                        a                      a                      a 
 Frequencies --  1495.5288              1495.8485              1499.0947
 Red. masses --    99.0000                99.0000                99.0000
 Frc consts  --    99.0000                99.0000                99.0000
 IR Inten    --    99.0000                99.0000                99.0000
 Raman Activ --     0.0000                 0.0000                 0.0000
 Depolar     --     0.0000                 0.0000                 0.0000
 Atom AN      X      Y      Z        X      Y      Z        X      Y      Z
   1   6     0.00   0.03   0.00    -0.01  -0.01  -0.00     0.01   0.02   0.00
   2   6     0.00  -0.11   0.00    -0.02  -0.02   0.00     0.03   0.01  -0.00
   3   6     0.03  -0.05   0.00    -0.00   0.14  -0.01    -0.01  -0.19   0.01
   4   6    -0.00   0.16  -0.00     0.03   0.02  -0.00    -0.02  -0.07   0.00
   5   6    -0.03   0.00  -0.00    -0.00  -0.19   0.01     0.02  -0.00   0.00
   6   6    -0.00  -0.16   0.00    -0.03   0.02  -0.00    -0.02   0.07  -0.00
   7   6     0.03   0.05  -0.00     0.00   0.14  -0.01    -0.01   0.19  -0.01
   8   6     0.00   0.11  -0.00     0.02  -0.02   0.00     0.03  -0.01   0.00
   9   6     0.00  -0.03   0.00     0.01  -0.01  -0.00     0.01  -0.02  -0.00
  10   1    -0.02   0.03  -0.00     0.01  -0.02   0.01    -0.03   0.04  -0.02
  11   1    -0.01  -0.08  -0.05     0.02   0.02   0.01    -0.03  -0.06  -0.04
  12   1    -0.00  -0.07   0.06     0.01   0.02  -0.01    -0.01  -0.05   0.04
  13   1    -0.01   0.20  -0.16     0.01   0.06  -0.04    -0.02  -0.02   0.02
  14   1     0.00   0.21   0.15     0.01   0.06   0.04    -0.02  -0.03  -0.02
  15   1    -0.02   0.10   0.07    -0.01  -0.28  -0.19     0.01   0.37   0.25
  16   1    -0.02   0.09  -0.07     0.00  -0.26   0.21    -0.00   0.35  -0.28
  17   1     0.01  -0.29   0.23    -0.02  -0.05   0.04     0.01   0.11  -0.09
  18   1    -0.00  -0.31  -0.21    -0.02  -0.05  -0.03     0.01   0.11   0.08
  19   1     0.02  -0.00   0.00    -0.00   0.36  -0.29    -0.01   0.00  -0.00
  20   1     0.02  -0.00  -0.00     0.00   0.38   0.26    -0.01   0.00   0.00
  21   1     0.01   0.29  -0.23     0.02  -0.04   0.04     0.01  -0.11   0.09
  22   1    -0.00   0.30   0.22     0.02  -0.05  -0.03     0.01  -0.11  -0.08
  23   1    -0.02  -0.09   0.07    -0.00  -0.26   0.21    -0.00  -0.35   0.28
  24   1    -0.02  -0.10  -0.07     0.01  -0.28  -0.19     0.01  -0.37  -0.25
  25   1     0.00  -0.21  -0.15    -0.01   0.06   0.04    -0.02   0.03   0.02
  26   1    -0.01  -0.20   0.16    -0.01   0.06  -0.04    -0.02   0.02  -0.02
  27   1    -0.01   0.08   0.05    -0.02   0.02   0.01    -0.03   0.06   0.04
  28   1    -0.02  -0.03   0.00    -0.01  -0.02   0.00    -0.03  -0.04   0.01
  29   1    -0.00   0.07  -0.06    -0.01   0.02  -0.01    -0.01   0.05  -0.04
                     34                     35                     36
                        a                      a                      a 
 Frequencies --  1502.0332               942.1683               939.7168
 Red. masses --    99.0000                99.0000                99.0000
 Frc consts  --    99.0000                99.0000                99.0000
 IR Inten    --    99.0000                99.0000                99.0000
 Raman Activ --     0.0000                 0.0000                 0.0000
 Depolar     --     0.0000                 0.0000                 0.0000
 Atom AN      X      Y      Z        X      Y      Z        X      Y      Z
   1   6    -0.01  -0.02  -0.01     0.27   0.06  -0.02     0.25   0.08  -0.01
   2   6    -0.02   0.02  -0.00     0.05   0.21  -0.01     0.06   0.19  -0.01
   3   6     0.02   0.11  -0.01    -0.19  -0.23   0.02    -0.13  -0.28   0.02
   4   6    -0.01   0.13  -0.00    -0.14   0.02   0.00    -0.07   0.14  -0.00
   5   6    -0.00   0.19  -0.01     0.00   0.08  -0.00    -0.04   0.00   0.00
   6   6     0.01   0.13  -0.00     0.14   0.02   0.00    -0.07  -0.14   0.00
   7   6    -0.02   0.11  -0.01     0.19  -0.23   0.02    -0.13   0.28  -0.02
   8   6     0.02   0.02  -0.00    -0.05   0.21  -0.01     0.06  -0.19   0.01
   9   6     0.01  -0.02  -0.00    -0.27   0.06  -0.01     0.24  -0.08   0.01
  10   1     0.02  -0.03   0.02     0.29  -0.30  -0.01     0.29  -0.30  -0.01
  11   1     0.03   0.07   0.04    -0.16  -0.02  -0.01    -0.17  -0.01  -0.01
  12   1     0.00   0.06  -0.04    -0.15  -0.02   0.02    -0.16  -0.01   0.02
  13   1     0.01  -0.04   0.03    -0.08   0.06   0.00    -0.09   0.05   0.00
  14   1     0.01  -0.04  -0.03    -0.08   0.05   0.00    -0.09   0.05   0.00
  15   1    -0.01  -0.20  -0.14    -0.09  -0.06   0.01    -0.08  -0.07   0.01
  16   1     0.00  -0.19   0.15    -0.08  -0.06   0.00    -0.08  -0.07   0.00
  17   1     0.01  -0.21   0.17    -0.03   0.00   0.00     0.01   0.03   0.00
  18   1     0.00  -0.22  -0.15    -0.02   0.00  -0.00     0.01   0.03  -0.00
  19   1     0.00  -0.32   0.26     0.00   0.02  -0.00     0.04   0.00  -0.00
  20   1     0.00  -0.34  -0.23    -0.00   0.02   0.00     0.04  -0.00  -0.00
  21   1    -0.01  -0.21   0.17     0.03   0.00   0.00     0.01  -0.03  -0.00
  22   1    -0.00  -0.22  -0.16     0.02   0.00  -0.00     0.01  -0.03   0.00
  23   1    -0.00  -0.19   0.16     0.08  -0.06   0.00    -0.08   0.07  -0.00
  24   1     0.01  -0.20  -0.14     0.09  -0.06   0.01    -0.08   0.07  -0.01
  25   1    -0.01  -0.04  -0.03     0.08   0.05   0.00    -0.09  -0.05  -0.00
  26   1    -0.01  -0.04   0.03     0.08   0.06   0.00    -0.09  -0.05  -0.00
  27   1    -0.03   0.07   0.04     0.16  -0.02  -0.01    -0.17   0.01   0.01
  28   1    -0.02  -0.03   0.02    -0.29  -0.30  -0.00     0.29   0.30   0.00
  29   1    -0.01   0.06  -0.05     0.15  -0.02   0.02    -0.16   0.01  -0.02
                     37                     38                     39
                        a                      a                      a 
 Frequencies --  1500.9792              1505.1461              1241.1349
 Red. masses --    99.0000                99.0000                99.0000
 Frc consts  --    99.0000                99.0000                99.0000
 IR Inten    --    99.0000                99.0000                99.0000
 Raman Activ --     0.0000                 0.0000                 0.0000
 Depolar     --     0.0000                 0.0000                 0.0000
 Atom AN      X      Y      Z        X      Y      Z        X      Y      Z
   1   6    -0.00   0.03  -0.00     0.02   0.01  -0.04    -0.01  -0.01  -0.20
   2   6     0.00  -0.16   0.00     0.01   0.10  -0.01     0.01   0.01   0.20
   3   6     0.00   0.01  -0.00    -0.00  -0.06   0.00    -0.01   0.00   0.01
   4   6    -0.00  -0.11   0.00     0.00   0.12  -0.00     0.00  -0.01  -0.19
   5   6     0.02   0.00  -0.00     0.00  -0.09   0.00    -0.00   0.01   0.27
   6   6    -0.00   0.11  -0.00    -0.00   0.12  -0.00    -0.00  -0.01  -0.19
   7   6     0.00  -0.01   0.00     0.00  -0.06   0.00     0.01   0.00   0.01
   8   6     0.00   0.16  -0.00    -0.01   0.10  -0.01    -0.01   0.01   0.20
   9   6    -0.00  -0.03   0.00    -0.02   0.01  -0.03     0.01  -0.01  -0.20
  10   1    -0.01   0.02   0.00    -0.02   0.04   0.13     0.00   0.00   0.08
  11   1    -0.00  -0.08  -0.05     0.05  -0.02  -0.02    -0.12   0.12   0.05
  12   1     0.00  -0.07   0.06    -0.10  -0.07   0.05     0.13  -0.11   0.04
  13   1    -0.01   0.30  -0.24    -0.00  -0.19   0.15    -0.21   0.11  -0.02
  14   1     0.01   0.31   0.22    -0.02  -0.19  -0.14     0.21  -0.11  -0.04
  15   1    -0.00  -0.06  -0.04    -0.00   0.14   0.10     0.19  -0.01  -0.01
  16   1    -0.00  -0.06   0.04    -0.00   0.14  -0.11    -0.19   0.01   0.00
  17   1    -0.01   0.21  -0.16     0.00  -0.25   0.19    -0.16  -0.10   0.04
  18   1    -0.00   0.22   0.15    -0.00  -0.26  -0.18     0.16   0.10   0.03
  19   1    -0.01  -0.00   0.00    -0.00   0.19  -0.16     0.00   0.14  -0.05
  20   1    -0.01  -0.00  -0.00    -0.00   0.21   0.14     0.00  -0.15  -0.04
  21   1    -0.01  -0.21   0.16    -0.00  -0.25   0.19     0.16  -0.10   0.04
  22   1    -0.00  -0.22  -0.15     0.01  -0.26  -0.18    -0.16   0.10   0.03
  23   1    -0.00   0.06  -0.04     0.00   0.13  -0.11     0.19   0.01   0.00
  24   1    -0.00   0.06   0.04    -0.00   0.14   0.10    -0.19  -0.01  -0.01
  25   1     0.01  -0.31  -0.22     0.02  -0.19  -0.14    -0.21  -0.11  -0.03
  26   1    -0.01  -0.30   0.24     0.00  -0.19   0.15     0.21   0.11  -0.02
  27   1    -0.00   0.08   0.05    -0.02  -0.03  -0.02     0.13   0.12   0.05
  28   1    -0.01  -0.02   0.00     0.02   0.04   0.08    -0.00   0.00   0.08
  29   1     0.00   0.07  -0.06     0.07  -0.06   0.05    -0.13  -0.11   0.04
                     40                     41                     42
                        a                      a                      a 
 Frequencies --  1050.2534              1053.8600              1267.4217
 Red. masses --    99.0000                99.0000                99.0000
 Frc consts  --    99.0000                99.0000                99.0000
 IR Inten    --    99.0000                99.0000                99.0000
 Raman Activ --     0.0000                 0.0000                 0.0000
 Depolar     --     0.0000                 0.0000                 0.0000
 Atom AN      X      Y      Z        X      Y      Z        X      Y      Z
   1   6     0.08  -0.19   0.00    -0.20   0.14   0.01    -0.01  -0.00  -0.14
   2   6    -0.10   0.21  -0.00     0.19  -0.16  -0.00     0.00  -0.00   0.01
   3   6    -0.17   0.03   0.00     0.29  -0.20  -0.00    -0.00   0.01   0.15
   4   6    -0.19  -0.33   0.01    -0.09   0.34  -0.01    -0.01  -0.01  -0.17
   5   6    -0.00   0.48  -0.02    -0.36  -0.00  -0.00     0.01  -0.00  -0.00
   6   6     0.19  -0.33   0.01    -0.09  -0.34   0.01    -0.01   0.01   0.17
   7   6     0.17   0.03   0.00     0.29   0.19   0.00     0.00  -0.01  -0.15
   8   6     0.10   0.21  -0.00     0.19   0.16   0.00     0.00   0.00  -0.01
   9   6    -0.08  -0.19   0.00    -0.20  -0.14  -0.00    -0.01   0.00   0.14
  10   1    -0.08   0.09   0.00    -0.06   0.04   0.00     0.00   0.00   0.04
  11   1     0.15  -0.03   0.00    -0.07   0.04   0.00    -0.09   0.08   0.03
  12   1     0.15  -0.03  -0.01    -0.07   0.04   0.00     0.09  -0.08   0.02
  13   1     0.06   0.06  -0.00     0.04  -0.05   0.00    -0.34   0.01   0.01
  14   1     0.06   0.06  -0.00     0.04  -0.05  -0.00     0.34  -0.01  -0.02
  15   1     0.06   0.01  -0.00     0.08  -0.05  -0.00    -0.03  -0.08  -0.02
  16   1     0.07   0.01  -0.00     0.07  -0.05   0.00     0.04   0.08  -0.03
  17   1     0.01  -0.08   0.00    -0.00   0.09  -0.01    -0.06  -0.09   0.03
  18   1     0.01  -0.08   0.00     0.00   0.10   0.00     0.06   0.09   0.02
  19   1    -0.00   0.13  -0.01    -0.06  -0.00   0.00     0.36  -0.00  -0.00
  20   1    -0.00   0.12  -0.01    -0.07   0.00   0.00    -0.36  -0.00   0.00
  21   1    -0.01  -0.08   0.00    -0.00  -0.09   0.01    -0.06   0.09  -0.03
  22   1    -0.02  -0.08   0.00     0.00  -0.10  -0.00     0.06  -0.09  -0.02
  23   1    -0.07   0.01  -0.00     0.07   0.05  -0.00     0.04  -0.08   0.03
  24   1    -0.06   0.01  -0.00     0.08   0.05   0.00    -0.04   0.08   0.02
  25   1    -0.06   0.06  -0.00     0.04   0.05   0.00     0.34   0.01   0.01
  26   1    -0.06   0.06  -0.01     0.04   0.05  -0.00    -0.34  -0.01  -0.01
  27   1    -0.15  -0.03   0.00    -0.07  -0.04  -0.00    -0.09  -0.08  -0.03
  28   1     0.08   0.09   0.00    -0.06  -0.04  -0.00     0.00  -0.00  -0.04
  29   1    -0.15  -0.03  -0.01    -0.07  -0.04   0.00     0.09   0.08  -0.02
                     43                     44                     45
                        a                      a                      a 
 Frequencies --  1099.0638              1093.8187              1122.9961
 Red. masses --    99.0000                99.0000                99.0000
 Frc consts  --    99.0000                99.0000                99.0000
 IR Inten    --    99.0000                99.0000                99.0000
 Raman Activ --     0.0000                 0.0000                 0.0000
 Depolar     --     0.0000                 0.0000                 0.0000
 Atom AN      X      Y      Z        X      Y      Z        X      Y      Z
   1   6     0.12  -0.26   0.00     0.22  -0.18  -0.01     0.15   0.02  -0.01
   2   6    -0.25   0.21   0.01    -0.31   0.13   0.01    -0.27  -0.21   0.02
   3   6     0.18  -0.16  -0.00    -0.10   0.19  -0.00     0.25   0.25  -0.01
   4   6    -0.21   0.14  -0.00     0.34   0.00  -0.01     0.12   0.04  -0.01
   5   6     0.03   0.00  -0.00    -0.00  -0.27   0.01    -0.13   0.00   0.00
   6   6    -0.21  -0.14   0.00    -0.34   0.00  -0.01     0.12  -0.04   0.01
   7   6     0.18   0.16   0.00     0.10   0.19  -0.00     0.25  -0.25   0.02
   8   6    -0.25  -0.21  -0.01     0.31   0.13   0.01    -0.27   0.21  -0.02
   9   6     0.12   0.26  -0.00    -0.22  -0.18  -0.00     0.15  -0.02   0.01
  10   1    -0.06   0.07   0.00     0.05  -0.04  -0.00     0.13  -0.14  -0.00
  11   1     0.16  -0.05   0.00     0.08  -0.05  -0.01    -0.08  -0.02  -0.01
  12   1     0.16  -0.05  -0.01     0.08  -0.05   0.00    -0.08  -0.02   0.02
  13   1    -0.08   0.05   0.00    -0.13   0.04   0.00    -0.23  -0.05   0.01
  14   1    -0.08   0.05   0.00    -0.13   0.04   0.01    -0.23  -0.05   0.01
  15   1     0.19  -0.04  -0.00    -0.04   0.06   0.00     0.04   0.07  -0.00
  16   1     0.19  -0.04  -0.01    -0.04   0.06  -0.01     0.03   0.07  -0.01
  17   1    -0.04   0.04  -0.00     0.13  -0.00  -0.00    -0.05   0.02  -0.00
  18   1    -0.05   0.04   0.00     0.12  -0.00  -0.00    -0.05   0.02   0.00
  19   1     0.15   0.00  -0.00     0.00  -0.08   0.01    -0.15  -0.00   0.00
  20   1     0.14  -0.00  -0.00    -0.00  -0.08  -0.00    -0.15   0.00   0.00
  21   1    -0.04  -0.04   0.00    -0.13  -0.00  -0.00    -0.05  -0.02   0.00
  22   1    -0.05  -0.04  -0.00    -0.12  -0.00  -0.00    -0.05  -0.02  -0.00
  23   1     0.19   0.04   0.01     0.04   0.06  -0.01     0.03  -0.07   0.01
  24   1     0.19   0.04   0.00     0.04   0.06   0.00     0.04  -0.07   0.00
  25   1    -0.08  -0.05  -0.00     0.13   0.04   0.01    -0.23   0.05  -0.01
  26   1    -0.08  -0.05  -0.00     0.13   0.04   0.00    -0.23   0.05  -0.01
  27   1     0.16   0.05  -0.00    -0.08  -0.05  -0.01    -0.08   0.02   0.01
  28   1    -0.06  -0.07  -0.00    -0.05  -0.04  -0.00     0.13   0.14   0.00
  29   1     0.16   0.05   0.01    -0.08  -0.05   0.00    -0.08   0.02  -0.02
                     46                     47                     48
                        a                      a                      a 
 Frequencies --  1109.0507              1114.3249              1284.5484
 Red. masses --    99.0000                99.0000                99.0000
 Frc consts  --    99.0000                99.0000                99.0000
 IR Inten    --    99.0000                99.0000                99.0000
 Raman Activ --     0.0000                 0.0000                 0.0000
 Depolar     --     0.0000                 0.0000                 0.0000
 Atom AN      X      Y      Z        X      Y      Z        X      Y      Z
   1   6     0.05  -0.13   0.00    -0.11   0.14   0.00     0.00  -0.00   0.09
   2   6    -0.08   0.18  -0.00     0.25  -0.02  -0.01     0.01   0.01   0.10
   3   6    -0.13   0.01   0.01    -0.34   0.10   0.01     0.00  -0.01  -0.13
   4   6     0.30   0.15  -0.01     0.23  -0.20   0.01     0.01  -0.01  -0.08
   5   6    -0.48   0.00  -0.00     0.00  -0.02  -0.00    -0.00   0.01   0.06
   6   6     0.30  -0.15   0.01    -0.23  -0.20   0.01    -0.01  -0.01  -0.08
   7   6    -0.13  -0.01  -0.01     0.34   0.10   0.01    -0.00  -0.01  -0.13
   8   6    -0.08  -0.18   0.01    -0.25  -0.02  -0.01    -0.01   0.01   0.10
   9   6     0.05   0.13  -0.00     0.11   0.14   0.00    -0.00  -0.00   0.09
  10   1    -0.04   0.05   0.00    -0.01   0.01  -0.00    -0.00   0.00  -0.01
  11   1     0.10  -0.02   0.00    -0.06   0.04   0.00     0.06  -0.04  -0.01
  12   1     0.09  -0.02  -0.01    -0.07   0.04   0.00    -0.05   0.04  -0.01
  13   1     0.02   0.05  -0.00     0.17  -0.00  -0.01     0.34   0.05  -0.03
  14   1     0.03   0.05  -0.00     0.17  -0.00  -0.01    -0.36  -0.05   0.00
  15   1    -0.04   0.01   0.00    -0.18   0.02   0.00     0.29   0.07   0.00
  16   1    -0.05   0.02  -0.00    -0.18   0.02   0.01    -0.32  -0.06   0.03
  17   1     0.23   0.04  -0.01     0.14  -0.06   0.00    -0.03  -0.04   0.01
  18   1     0.24   0.05  -0.00     0.13  -0.06  -0.00    -0.01   0.04   0.01
  19   1    -0.21  -0.00   0.00     0.00  -0.02   0.01     0.00   0.03  -0.01
  20   1    -0.21   0.00   0.00    -0.00  -0.02  -0.00     0.00  -0.03  -0.01
  21   1     0.23  -0.04   0.01    -0.14  -0.06  -0.00     0.03  -0.04   0.01
  22   1     0.24  -0.05   0.00    -0.13  -0.06  -0.00     0.01   0.04   0.01
  23   1    -0.05  -0.02   0.00     0.18   0.02   0.01     0.32  -0.06   0.03
  24   1    -0.04  -0.01  -0.00     0.18   0.02   0.00    -0.29   0.07   0.00
  25   1     0.03  -0.05   0.00    -0.17   0.00  -0.00     0.36  -0.05   0.00
  26   1     0.02  -0.05   0.00    -0.17  -0.00  -0.01    -0.34   0.05  -0.03
  27   1     0.10   0.02  -0.00     0.06   0.04   0.00    -0.05  -0.04  -0.01
  28   1    -0.04  -0.05   0.00     0.01   0.01  -0.00     0.01   0.00  -0.01
  29   1     0.09   0.02   0.01     0.06   0.04   0.00     0.05   0.04  -0.01
                     49                     50                     51
                        a                      a                      a 
 Frequencies --  1144.7464              1275.1456              1233.4084
 Red. masses --    99.0000                99.0000                99.0000
 Frc consts  --    99.0000                99.0000                99.0000
 IR Inten    --    99.0000                99.0000                99.0000
 Raman Activ --     0.0000                 0.0000                 0.0000
 Depolar     --     0.0000                 0.0000                 0.0000
 Atom AN      X      Y      Z        X      Y      Z        X      Y      Z
   1   6    -0.07  -0.15   0.01     0.01   0.01   0.07     0.04   0.09  -0.01
   2   6     0.10   0.30  -0.01    -0.01  -0.01  -0.10    -0.08  -0.15   0.01
   3   6    -0.11  -0.32   0.01    -0.01  -0.00  -0.13    -0.11   0.13   0.00
   4   6     0.01   0.26  -0.01    -0.00   0.00   0.10    -0.16  -0.07   0.01
   5   6    -0.00  -0.28   0.01    -0.01  -0.00  -0.00    -0.18  -0.00  -0.00
   6   6    -0.01   0.26  -0.01     0.01   0.00  -0.10    -0.16   0.07  -0.01
   7   6     0.11  -0.32   0.01     0.00   0.00   0.13    -0.11  -0.13  -0.00
   8   6    -0.10   0.30  -0.02    -0.01   0.00   0.10    -0.08   0.15  -0.01
   9   6     0.07  -0.15   0.01     0.00  -0.00  -0.07     0.04  -0.09   0.01
  10   1    -0.14   0.14   0.00     0.00  -0.01  -0.04     0.07  -0.07  -0.00
  11   1     0.14  -0.01   0.01     0.03  -0.04  -0.02    -0.07   0.00  -0.01
  12   1     0.14  -0.00  -0.02    -0.04   0.04  -0.01    -0.06  -0.00   0.02
  13   1     0.13   0.07  -0.00     0.05  -0.05   0.01     0.07  -0.03  -0.01
  14   1     0.13   0.08  -0.01    -0.04   0.05   0.01     0.07  -0.03   0.00
  15   1    -0.02  -0.08   0.01    -0.30   0.07   0.02     0.22   0.03  -0.01
  16   1    -0.02  -0.08   0.00     0.32  -0.06   0.01     0.21   0.03  -0.00
  17   1     0.03   0.06   0.00    -0.31   0.05  -0.01     0.30  -0.01  -0.01
  18   1     0.04   0.06  -0.01     0.34  -0.05  -0.02     0.28  -0.01  -0.00
  19   1    -0.00  -0.07   0.00     0.15  -0.00  -0.00     0.31  -0.00   0.00
  20   1    -0.00  -0.07   0.01    -0.13  -0.00   0.00     0.32   0.00   0.00
  21   1    -0.03   0.06   0.00    -0.33  -0.05   0.01     0.29   0.01   0.01
  22   1    -0.04   0.06  -0.01     0.33   0.05   0.02     0.28   0.01   0.00
  23   1     0.02  -0.08   0.00     0.31   0.06  -0.01     0.20  -0.03   0.00
  24   1     0.02  -0.08   0.01    -0.32  -0.07  -0.02     0.22  -0.03   0.01
  25   1    -0.13   0.08  -0.01    -0.05  -0.05  -0.01     0.07   0.03  -0.00
  26   1    -0.13   0.07  -0.01     0.04   0.05  -0.01     0.07   0.03   0.01
  27   1    -0.14  -0.01   0.01     0.04   0.04   0.02    -0.07  -0.00   0.01
  28   1     0.14   0.14   0.00    -0.00   0.00   0.04     0.07   0.07   0.00
  29   1    -0.14  -0.00  -0.02    -0.04  -0.04   0.02    -0.06   0.00  -0.02
                     52                     53                     54
                        a                      a                      a 
 Frequencies --  1297.1234              1294.4481              1273.6551
 Red. masses --    99.0000                99.0000                99.0000
 Frc consts  --    99.0000                99.0000                99.0000
 IR Inten    --    99.0000                99.0000                99.0000
 Raman Activ --     0.0000                 0.0000                 0.0000
 Depolar     --     0.0000                 0.0000                 0.0000
 Atom AN      X      Y      Z        X      Y      Z        X      Y      Z
   1   6     0.01   0.01   0.05     0.01   0.01   0.06    -0.04  -0.10   0.01
   2   6    -0.02  -0.00   0.08    -0.02  -0.01  -0.04     0.15   0.11  -0.02
   3   6    -0.03  -0.01  -0.09    -0.02  -0.00  -0.16     0.18  -0.02  -0.01
   4   6     0.00   0.00  -0.18     0.01   0.01   0.04     0.14  -0.09   0.01
   5   6     0.03   0.00  -0.00    -0.00  -0.00   0.23    -0.00   0.14   0.01
   6   6     0.00  -0.00   0.18    -0.01   0.01   0.04    -0.14  -0.09   0.01
   7   6    -0.03   0.01   0.09     0.02  -0.00  -0.16    -0.18  -0.02  -0.00
   8   6    -0.02   0.00  -0.08     0.02  -0.01  -0.04    -0.15   0.11  -0.02
   9   6     0.01  -0.01  -0.05    -0.01   0.01   0.06     0.04  -0.10   0.00
  10   1     0.01  -0.01  -0.00     0.01  -0.01  -0.03    -0.08   0.08  -0.00
  11   1     0.03  -0.02  -0.01     0.03  -0.04  -0.01     0.05   0.01   0.02
  12   1    -0.03   0.02  -0.00    -0.04   0.03  -0.01     0.05   0.01  -0.02
  13   1     0.26   0.04  -0.02     0.12  -0.02  -0.00    -0.20   0.01   0.01
  14   1    -0.20  -0.04  -0.00    -0.08   0.02   0.01    -0.17   0.03   0.00
  15   1     0.27   0.04  -0.00    -0.17   0.08   0.02    -0.35  -0.00   0.01
  16   1    -0.21  -0.04   0.02     0.22  -0.08   0.01    -0.27  -0.01   0.01
  17   1    -0.15  -0.09   0.03    -0.38   0.02   0.00    -0.26  -0.01  -0.00
  18   1     0.13   0.09   0.01     0.40  -0.02  -0.01    -0.19  -0.02   0.01
  19   1     0.36  -0.00  -0.00     0.00   0.11  -0.03     0.01   0.03   0.01
  20   1    -0.43  -0.00   0.00     0.00  -0.12  -0.02    -0.01   0.01  -0.01
  21   1    -0.15   0.09  -0.02     0.39   0.02   0.00     0.24  -0.01  -0.00
  22   1     0.13  -0.09  -0.01    -0.40  -0.02  -0.01     0.21  -0.02   0.01
  23   1    -0.21   0.04  -0.02    -0.22  -0.08   0.01     0.29  -0.00   0.01
  24   1     0.27  -0.04   0.00     0.17   0.08   0.02     0.33  -0.00   0.01
  25   1    -0.20   0.04   0.00     0.08   0.02   0.01     0.17   0.02   0.00
  26   1     0.25  -0.04   0.02    -0.12  -0.02  -0.00     0.20   0.02   0.01
  27   1     0.03   0.02   0.01    -0.03  -0.04  -0.01    -0.05   0.01   0.02
  28   1     0.01   0.01   0.00    -0.01  -0.01  -0.03     0.08   0.08   0.00
  29   1    -0.03  -0.02   0.00     0.03   0.03  -0.01    -0.05   0.01  -0.02
                     55                     56                     57
                        a                      a                      a 
 Frequencies --  1312.1445              1345.3196              1369.0106
 Red. masses --    99.0000                99.0000                99.0000
 Frc consts  --    99.0000                99.0000                99.0000
 IR Inten    --    99.0000                99.0000                99.0000
 Raman Activ --     0.0000                 0.0000                 0.0000
 Depolar     --     0.0000                 0.0000                 0.0000
 Atom AN      X      Y      Z        X      Y      Z        X      Y      Z
   1   6     0.04   0.09  -0.01     0.03   0.08  -0.01     0.03   0.05  -0.00
   2   6    -0.22  -0.05   0.00    -0.27   0.00   0.01    -0.27   0.03   0.01
   3   6    -0.15  -0.06   0.02     0.01  -0.07   0.01     0.21  -0.03  -0.01
   4   6     0.07   0.10   0.02     0.24  -0.00  -0.00     0.09  -0.05  -0.00
   5   6     0.20  -0.00  -0.00     0.00   0.08  -0.01    -0.26   0.00  -0.00
   6   6     0.08  -0.10  -0.02    -0.24  -0.00  -0.01     0.09   0.05   0.00
   7   6    -0.15   0.06  -0.02    -0.01  -0.07   0.01     0.21   0.03   0.01
   8   6    -0.22   0.05  -0.00     0.27   0.00   0.01    -0.27  -0.03  -0.01
   9   6     0.04  -0.09   0.01    -0.03   0.08  -0.01     0.03  -0.05   0.00
  10   1     0.09  -0.09  -0.00     0.08  -0.09  -0.00     0.06  -0.07  -0.00
  11   1    -0.02  -0.02  -0.02     0.01  -0.03  -0.03     0.01  -0.03  -0.03
  12   1    -0.01  -0.02   0.03     0.01  -0.03   0.03     0.02  -0.03   0.03
  13   1     0.24  -0.01  -0.01     0.28  -0.01  -0.01     0.25  -0.01  -0.00
  14   1     0.29  -0.01  -0.01     0.30  -0.01  -0.02     0.26  -0.01  -0.02
  15   1     0.20  -0.01   0.00     0.00   0.01   0.02    -0.21   0.01   0.02
  16   1     0.25   0.00  -0.02    -0.00   0.01  -0.02    -0.22   0.01  -0.01
  17   1    -0.09   0.02   0.01    -0.27  -0.00   0.00    -0.09   0.01  -0.01
  18   1    -0.12  -0.00  -0.01    -0.30   0.00   0.01    -0.09   0.01   0.02
  19   1    -0.35  -0.00   0.00    -0.00  -0.01   0.02     0.28   0.00  -0.00
  20   1    -0.25   0.00   0.00     0.00  -0.00  -0.02     0.27   0.00  -0.00
  21   1    -0.09  -0.02  -0.01     0.27  -0.00   0.01    -0.09  -0.01   0.01
  22   1    -0.12   0.00   0.01     0.30   0.00   0.01    -0.09  -0.01  -0.02
  23   1     0.25  -0.00   0.02     0.00   0.01  -0.02    -0.22  -0.01   0.00
  24   1     0.20   0.01  -0.00    -0.00   0.01   0.02    -0.21  -0.01  -0.02
  25   1     0.29   0.01   0.01    -0.30  -0.01  -0.02     0.26   0.01   0.02
  26   1     0.24   0.01   0.01    -0.28  -0.01  -0.01     0.25   0.01  -0.00
  27   1    -0.02   0.02   0.02    -0.01  -0.03  -0.03     0.01   0.03   0.03
  28   1     0.09   0.09   0.00    -0.08  -0.09  -0.00     0.06   0.07  -0.00
  29   1    -0.01   0.02  -0.03    -0.01  -0.03   0.03     0.02   0.03  -0.03
                     58                     59                     60
                        a                      a                      a 
 Frequencies --  1379.6362              1379.2824              1416.1221
 Red. masses --    99.0000                99.0000                99.0000
 Frc consts  --    99.0000                99.0000                99.0000
 IR Inten    --    99.0000                99.0000                99.0000
 Raman Activ --     0.0000                 0.0000                 0.0000
 Depolar     --     0.0000                 0.0000                 0.0000
 Atom AN      X      Y      Z        X      Y      Z        X      Y      Z
   1   6    -0.03  -0.02   0.00    -0.03  -0.00   0.00    -0.26   0.16   0.01
   2   6     0.22  -0.02  -0.01     0.11  -0.01  -0.00     0.06   0.00  -0.00
   3   6    -0.31  -0.01   0.01    -0.22  -0.01   0.01     0.00   0.02  -0.00
   4   6     0.23   0.02  -0.00     0.31  -0.01  -0.01    -0.02  -0.01   0.00
   5   6    -0.00   0.03  -0.00    -0.35  -0.00   0.00     0.00  -0.00   0.00
   6   6    -0.23   0.02  -0.01     0.31   0.01   0.01     0.02  -0.01   0.00
   7   6     0.31  -0.01   0.01    -0.22   0.01  -0.01    -0.00   0.02  -0.00
   8   6    -0.22  -0.02  -0.01     0.11   0.01   0.00    -0.06   0.00  -0.00
   9   6     0.03  -0.02   0.00    -0.03   0.00  -0.00     0.26   0.16   0.01
  10   1    -0.03   0.03   0.00    -0.00  -0.00  -0.00     0.20  -0.30  -0.00
  11   1     0.00   0.02   0.02     0.02   0.01   0.00     0.32  -0.12  -0.12
  12   1     0.00   0.02  -0.02     0.02   0.01  -0.01     0.33  -0.11   0.09
  13   1    -0.18   0.01  -0.00    -0.08   0.01  -0.00    -0.06  -0.03   0.02
  14   1    -0.18   0.01   0.02    -0.08   0.01   0.01    -0.06  -0.03  -0.02
  15   1     0.27  -0.00  -0.01     0.17   0.00   0.00    -0.01   0.01   0.00
  16   1     0.28  -0.00  -0.01     0.17   0.00  -0.01    -0.01   0.01  -0.00
  17   1    -0.20  -0.01   0.01    -0.25   0.00   0.00     0.02  -0.00  -0.00
  18   1    -0.21  -0.01  -0.01    -0.25   0.00   0.01     0.02   0.00   0.00
  19   1     0.00  -0.01   0.01     0.28   0.00  -0.00    -0.00   0.00  -0.00
  20   1     0.00  -0.01  -0.01     0.27   0.00  -0.00    -0.00   0.00   0.00
  21   1     0.20  -0.01   0.01    -0.25  -0.00  -0.00    -0.02  -0.00  -0.00
  22   1     0.21  -0.01  -0.01    -0.25  -0.00  -0.01    -0.02  -0.00   0.00
  23   1    -0.28  -0.00  -0.01     0.17  -0.00   0.01     0.01   0.01  -0.00
  24   1    -0.27  -0.00  -0.01     0.17  -0.00  -0.00     0.01   0.01   0.00
  25   1     0.18   0.01   0.02    -0.08  -0.01  -0.01     0.06  -0.03  -0.02
  26   1     0.18   0.01  -0.00    -0.08  -0.01   0.00     0.06  -0.03   0.02
  27   1    -0.00   0.02   0.02     0.02  -0.01  -0.00    -0.32  -0.12  -0.12
  28   1     0.03   0.03  -0.00    -0.00   0.00  -0.00    -0.19  -0.30   0.00
  29   1    -0.00   0.02  -0.02     0.02  -0.01   0.01    -0.33  -0.11   0.09
                     61                     62                     63
                        a                      a                      a 
 Frequencies --  1416.1954              2953.7535              2956.7168
 Red. masses --    99.0000                99.0000                99.0000
 Frc consts  --    99.0000                99.0000                99.0000
 IR Inten    --    99.0000                99.0000                99.0000
 Raman Activ --     0.0000                 0.0000                 0.0000
 Depolar     --     0.0000                 0.0000                 0.0000
 Atom AN      X      Y      Z        X      Y      Z        X      Y      Z
   1   6    -0.26   0.16   0.01    -0.00  -0.00   0.00     0.00  -0.00   0.01
   2   6     0.06   0.00  -0.00    -0.00  -0.00  -0.06    -0.00  -0.00  -0.11
   3   6    -0.00   0.01  -0.00     0.00   0.01   0.14     0.00   0.01   0.14
   4   6    -0.02  -0.01   0.00    -0.00   0.00  -0.13     0.00   0.00   0.02
   5   6     0.02   0.00   0.00     0.00   0.00  -0.00    -0.00  -0.01  -0.14
   6   6    -0.02   0.01  -0.00    -0.00  -0.00   0.13    -0.00   0.00   0.02
   7   6    -0.00  -0.01   0.00     0.00  -0.01  -0.14    -0.00   0.01   0.14
   8   6     0.06  -0.00   0.00    -0.00   0.00   0.06     0.00  -0.00  -0.11
   9   6    -0.26  -0.16  -0.01    -0.00   0.00  -0.00    -0.00  -0.00   0.01
  10   1     0.19  -0.30  -0.00     0.00   0.00   0.00     0.00   0.00   0.00
  11   1     0.32  -0.12  -0.12    -0.00   0.01  -0.01    -0.00   0.01  -0.02
  12   1     0.33  -0.11   0.09     0.00  -0.01  -0.01     0.00  -0.01  -0.01
  13   1    -0.06  -0.03   0.02     0.01   0.10   0.12     0.01   0.16   0.20
  14   1    -0.06  -0.03  -0.02     0.00  -0.09   0.12     0.01  -0.15   0.21
  15   1    -0.01   0.01   0.00    -0.01   0.19  -0.27    -0.01   0.18  -0.25
  16   1    -0.01   0.01  -0.00    -0.01  -0.22  -0.27    -0.01  -0.22  -0.26
  17   1     0.03  -0.00  -0.00     0.00   0.19   0.22    -0.00  -0.03  -0.04
  18   1     0.03  -0.00  -0.00     0.01  -0.19   0.26     0.00   0.03  -0.05
  19   1    -0.02  -0.00   0.00    -0.00  -0.00  -0.00     0.00   0.22   0.27
  20   1    -0.02  -0.00   0.00     0.00  -0.00   0.00     0.00  -0.17   0.25
  21   1     0.03   0.00   0.00     0.00  -0.18  -0.22     0.00  -0.03  -0.04
  22   1     0.03   0.00   0.00     0.01   0.19  -0.26    -0.00   0.03  -0.05
  23   1    -0.01  -0.01   0.00    -0.01   0.22   0.27     0.01  -0.22  -0.26
  24   1    -0.01  -0.01  -0.00    -0.01  -0.19   0.27     0.01   0.18  -0.25
  25   1    -0.06   0.03   0.02     0.00   0.09  -0.12    -0.01  -0.15   0.21
  26   1    -0.06   0.03  -0.02     0.01  -0.10  -0.12    -0.01   0.16   0.20
  27   1     0.32   0.12   0.12    -0.00  -0.01   0.01     0.00   0.01  -0.02
  28   1     0.19   0.30  -0.00     0.00  -0.00  -0.00    -0.00   0.00   0.00
  29   1     0.33   0.11  -0.09     0.00   0.01   0.01    -0.00  -0.01  -0.01
                     64                     65                     66
                        a                      a                      a 
 Frequencies --  2952.3474              2960.7628              2966.4974
 Red. masses --    99.0000                99.0000                99.0000
 Frc consts  --    99.0000                99.0000                99.0000
 IR Inten    --    99.0000                99.0000                99.0000
 Raman Activ --     0.0000                 0.0000                 0.0000
 Depolar     --     0.0000                 0.0000                 0.0000
 Atom AN      X      Y      Z        X      Y      Z        X      Y      Z
   1   6     0.00   0.00  -0.00    -0.00   0.00  -0.01    -0.00  -0.00  -0.02
   2   6     0.00   0.00   0.02     0.01  -0.00   0.14     0.01  -0.01   0.15
   3   6    -0.00  -0.00  -0.08    -0.00  -0.01  -0.06     0.00   0.01   0.06
   4   6     0.00   0.00   0.14    -0.00   0.01  -0.14    -0.00   0.01  -0.08
   5   6    -0.00  -0.01  -0.16     0.00   0.00  -0.00    -0.00  -0.03  -0.15
   6   6    -0.00   0.00   0.14    -0.00  -0.01   0.14     0.00   0.01  -0.08
   7   6     0.00  -0.00  -0.08    -0.00   0.01   0.06    -0.00   0.01   0.06
   8   6    -0.00   0.00   0.02     0.01  -0.00  -0.14    -0.01  -0.00   0.15
   9   6    -0.00   0.00  -0.00    -0.00  -0.00   0.01     0.00  -0.00  -0.02
  10   1    -0.00  -0.00  -0.00    -0.00  -0.00  -0.00    -0.00  -0.00  -0.00
  11   1     0.00  -0.00   0.00     0.00  -0.02   0.03     0.00  -0.03   0.04
  12   1    -0.00   0.00   0.00    -0.00   0.02   0.02     0.00   0.03   0.03
  13   1    -0.00  -0.04  -0.05    -0.01  -0.20  -0.24    -0.01  -0.20  -0.24
  14   1    -0.00   0.04  -0.05    -0.01   0.20  -0.28    -0.01   0.22  -0.31
  15   1     0.01  -0.11   0.16     0.00  -0.07   0.10    -0.00   0.06  -0.08
  16   1     0.00   0.13   0.15     0.01   0.09   0.11    -0.00  -0.11  -0.14
  17   1    -0.01  -0.21  -0.25     0.00   0.18   0.22     0.00   0.08   0.10
  18   1    -0.00   0.20  -0.28     0.01  -0.20   0.28     0.00  -0.12   0.17
  19   1     0.00   0.26   0.30    -0.00  -0.00  -0.00     0.00   0.26   0.31
  20   1     0.00  -0.21   0.30     0.00  -0.00   0.00     0.00  -0.14   0.20
  21   1     0.01  -0.21  -0.25     0.00  -0.18  -0.22    -0.00   0.08   0.10
  22   1     0.00   0.20  -0.28     0.01   0.20  -0.28    -0.00  -0.12   0.17
  23   1    -0.00   0.13   0.15     0.01  -0.10  -0.12     0.00  -0.11  -0.13
  24   1    -0.01  -0.11   0.16     0.00   0.07  -0.10     0.00   0.06  -0.08
  25   1     0.00   0.04  -0.05    -0.01  -0.20   0.28     0.01   0.22  -0.31
  26   1     0.00  -0.04  -0.05    -0.01   0.20   0.24     0.01  -0.20  -0.24
  27   1    -0.00  -0.00   0.00     0.00   0.02  -0.03    -0.00  -0.03   0.04
  28   1     0.00  -0.00  -0.00    -0.00   0.00   0.00     0.00  -0.00  -0.00
  29   1     0.00   0.00   0.00    -0.00  -0.02  -0.02    -0.00   0.03   0.03
                     67                     68                     69
                        a                      a                      a 
 Frequencies --  3029.8007              3029.9383              2973.2551
 Red. masses --    99.0000                99.0000                99.0000
 Frc consts  --    99.0000                99.0000                99.0000
 IR Inten    --    99.0000                99.0000                99.0000
 Raman Activ --     0.0000                 0.0000                 0.0000
 Depolar     --     0.0000                 0.0000                 0.0000
 Atom AN      X      Y      Z        X      Y      Z        X      Y      Z
   1   6    -0.02  -0.03  -0.21    -0.02  -0.03  -0.20     0.00   0.00  -0.02
   2   6    -0.00  -0.00  -0.03    -0.00  -0.00  -0.03     0.01  -0.03   0.11
   3   6    -0.00  -0.00  -0.01    -0.00  -0.00  -0.01     0.00   0.00   0.12
   4   6    -0.00  -0.00  -0.00    -0.00  -0.00  -0.00     0.00   0.07   0.08
   5   6    -0.00  -0.00  -0.00    -0.00  -0.00  -0.00     0.00   0.00  -0.00
   6   6    -0.00   0.00   0.00     0.00  -0.00  -0.00     0.00  -0.07  -0.08
   7   6    -0.00   0.00   0.01     0.00  -0.00  -0.01     0.00  -0.00  -0.12
   8   6    -0.00   0.00   0.03     0.00  -0.00  -0.03     0.00   0.03  -0.11
   9   6    -0.02   0.03   0.20     0.02  -0.03  -0.21     0.00  -0.00   0.02
  10   1     0.03   0.02  -0.03     0.03   0.02  -0.03    -0.01  -0.01  -0.00
  11   1     0.02  -0.26   0.35     0.02  -0.24   0.32     0.00  -0.03   0.04
  12   1     0.01   0.33   0.42     0.01   0.31   0.39     0.00   0.02   0.03
  13   1     0.00   0.04   0.06     0.00   0.04   0.05    -0.01  -0.09  -0.10
  14   1     0.00  -0.03   0.04     0.00  -0.03   0.04    -0.01   0.21  -0.30
  15   1    -0.00  -0.01   0.01    -0.00  -0.01   0.01    -0.01   0.16  -0.23
  16   1     0.00   0.02   0.02     0.00   0.02   0.02    -0.01  -0.16  -0.19
  17   1    -0.00   0.00   0.01    -0.00   0.01   0.01    -0.01  -0.24  -0.32
  18   1     0.00  -0.00   0.00     0.00  -0.00   0.01     0.00  -0.01   0.04
  19   1     0.00   0.00   0.00    -0.00   0.01   0.01     0.00  -0.01  -0.01
  20   1    -0.00  -0.00   0.00     0.00  -0.00   0.00     0.00  -0.01   0.01
  21   1    -0.00  -0.00  -0.01     0.00   0.01   0.01    -0.01   0.24   0.33
  22   1     0.00   0.00  -0.00    -0.00  -0.00   0.01     0.00   0.02  -0.06
  23   1     0.00  -0.01  -0.02    -0.00   0.02   0.02    -0.01   0.16   0.20
  24   1    -0.00   0.01  -0.01     0.00  -0.01   0.01    -0.01  -0.15   0.22
  25   1     0.00   0.03  -0.04    -0.00  -0.03   0.04    -0.01  -0.20   0.30
  26   1     0.00  -0.04  -0.05    -0.00   0.04   0.06    -0.00   0.09   0.10
  27   1     0.02   0.24  -0.33    -0.02  -0.26   0.35     0.00   0.03  -0.04
  28   1     0.03  -0.02   0.03    -0.03   0.02  -0.03    -0.01   0.01   0.00
  29   1     0.01  -0.31  -0.39    -0.01   0.33   0.42     0.00  -0.02  -0.03
                     70                     71                     72
                        a                      a                      a 
 Frequencies --  2971.6786              2972.2516              2975.3408
 Red. masses --    99.0000                99.0000                99.0000
 Frc consts  --    99.0000                99.0000                99.0000
 IR Inten    --    99.0000                99.0000                99.0000
 Raman Activ --     0.0000                 0.0000                 0.0000
 Depolar     --     0.0000                 0.0000                 0.0000
 Atom AN      X      Y      Z        X      Y      Z        X      Y      Z
   1   6    -0.00  -0.00  -0.01    -0.00   0.00  -0.00    -0.00  -0.00  -0.01
   2   6     0.00   0.01   0.07     0.00   0.04   0.02     0.00   0.09   0.04
   3   6     0.00   0.07   0.06     0.00  -0.07   0.02     0.00  -0.09   0.05
   4   6     0.00  -0.11   0.03     0.00  -0.05  -0.01     0.00  -0.04   0.02
   5   6    -0.00  -0.00   0.00    -0.00   0.14  -0.03    -0.00   0.00  -0.00
   6   6     0.00   0.11  -0.03    -0.00  -0.04  -0.00     0.00   0.03  -0.02
   7   6     0.00  -0.06  -0.06    -0.00  -0.08   0.03     0.00   0.10  -0.05
   8   6     0.00  -0.01  -0.07    -0.00   0.04   0.03     0.00  -0.09  -0.04
   9   6    -0.00   0.00   0.01     0.00   0.00  -0.00    -0.00   0.00   0.01
  10   1     0.01   0.00  -0.00     0.00   0.00  -0.00     0.01   0.01  -0.00
  11   1     0.00  -0.01   0.01    -0.00  -0.00   0.01    -0.00  -0.01   0.01
  12   1     0.00   0.02   0.03    -0.00   0.01   0.01    -0.00   0.01   0.02
  13   1    -0.00  -0.10  -0.13    -0.01  -0.12  -0.17    -0.01  -0.23  -0.32
  14   1    -0.00   0.08  -0.11     0.00  -0.05   0.09     0.01  -0.11   0.18
  15   1     0.00  -0.05   0.09    -0.01   0.15  -0.25    -0.01   0.22  -0.36
  16   1    -0.01  -0.22  -0.29     0.01   0.12   0.17     0.01   0.13   0.19
  17   1     0.00   0.17   0.26     0.00   0.11   0.15     0.00   0.05   0.08
  18   1    -0.01   0.23  -0.36    -0.00   0.08  -0.13    -0.00   0.09  -0.15
  19   1    -0.00   0.00   0.01    -0.00  -0.25  -0.35     0.00  -0.01  -0.01
  20   1    -0.00   0.01  -0.01     0.00  -0.28   0.47     0.00  -0.01   0.01
  21   1     0.00  -0.18  -0.26    -0.00   0.08   0.12     0.00  -0.03  -0.04
  22   1    -0.01  -0.23   0.37     0.00   0.07  -0.11    -0.00  -0.07   0.11
  23   1    -0.01   0.21   0.28    -0.01   0.12   0.17     0.01  -0.15  -0.22
  24   1     0.00   0.04  -0.08     0.01   0.17  -0.27    -0.01  -0.24   0.38
  25   1    -0.00  -0.08   0.11    -0.00  -0.04   0.08     0.01   0.11  -0.18
  26   1    -0.00   0.11   0.14     0.01  -0.13  -0.17    -0.01   0.22   0.31
  27   1     0.00   0.01  -0.01     0.00  -0.01   0.01    -0.00   0.01  -0.01
  28   1     0.01  -0.00   0.00    -0.00   0.00  -0.00     0.01  -0.01   0.00
  29   1     0.00  -0.02  -0.03     0.00   0.01   0.01    -0.00  -0.01  -0.02
                     73                     74                     75
                        a                      a                      a 
 Frequencies --  2975.2285              3032.3865              3032.5709
 Red. masses --    99.0000                99.0000                99.0000
 Frc consts  --    99.0000                99.0000                99.0000
 IR Inten    --    99.0000                99.0000                99.0000
 Raman Activ --     0.0000                 0.0000                 0.0000
 Depolar     --     0.0000                 0.0000                 0.0000
 Atom AN      X      Y      Z        X      Y      Z        X      Y      Z
   1   6     0.00   0.01   0.00    -0.10  -0.18   0.03    -0.09  -0.17   0.03
   2   6    -0.00  -0.01  -0.02    -0.00  -0.02   0.00    -0.00  -0.02   0.00
   3   6    -0.00  -0.10  -0.02    -0.00  -0.01   0.00    -0.00  -0.01   0.00
   4   6     0.00   0.09  -0.03    -0.00  -0.00   0.00    -0.00  -0.00   0.00
   5   6    -0.00  -0.03  -0.03    -0.00  -0.00   0.00     0.00  -0.00   0.00
   6   6    -0.00   0.10  -0.03    -0.00   0.00  -0.00     0.00  -0.00   0.00
   7   6     0.00  -0.09  -0.02    -0.00   0.01  -0.00     0.00  -0.01   0.00
   8   6     0.00  -0.02  -0.03    -0.00   0.02  -0.00     0.00  -0.02   0.00
   9   6    -0.00   0.01   0.00    -0.09   0.17  -0.03     0.10  -0.18   0.03
  10   1    -0.01  -0.01   0.00     0.38   0.26  -0.02     0.37   0.25  -0.02
  11   1     0.00  -0.00   0.01    -0.03   0.21  -0.35    -0.03   0.21  -0.34
  12   1    -0.00  -0.02  -0.02    -0.01   0.15   0.25    -0.01   0.15   0.24
  13   1     0.00   0.03   0.04     0.00   0.03   0.04     0.00   0.03   0.04
  14   1     0.00  -0.02   0.03    -0.00   0.03  -0.05    -0.00   0.03  -0.05
  15   1    -0.01   0.15  -0.26     0.00   0.02  -0.03     0.00   0.02  -0.03
  16   1     0.01   0.23   0.32     0.00   0.02   0.03     0.00   0.02   0.03
  17   1    -0.00  -0.16  -0.23    -0.00   0.00   0.01    -0.00   0.01   0.01
  18   1     0.01  -0.20   0.33    -0.00   0.00  -0.01    -0.00   0.01  -0.01
  19   1     0.00   0.11   0.14     0.00   0.00   0.00    -0.00   0.01   0.01
  20   1     0.00   0.02  -0.03     0.00   0.00  -0.00    -0.00   0.01  -0.01
  21   1     0.00  -0.16  -0.23    -0.00  -0.00  -0.01     0.00   0.01   0.01
  22   1    -0.01  -0.21   0.34    -0.00  -0.00   0.01     0.00   0.01  -0.01
  23   1    -0.01   0.22   0.30     0.00  -0.02  -0.02    -0.00   0.02   0.03
  24   1     0.01   0.13  -0.22     0.00  -0.02   0.03    -0.00   0.02  -0.03
  25   1     0.00  -0.02   0.02    -0.00  -0.03   0.05     0.00   0.03  -0.05
  26   1    -0.00   0.06   0.08     0.00  -0.03  -0.04    -0.00   0.03   0.04
  27   1    -0.00  -0.00   0.01    -0.03  -0.20   0.34     0.03   0.21  -0.34
  28   1     0.01  -0.01   0.00     0.37  -0.25   0.02    -0.37   0.26  -0.02
  29   1     0.00  -0.02  -0.03    -0.01  -0.15  -0.24     0.01   0.16   0.25
                     76                     77                     78
                        a                      a                      a 
 Frequencies --  2978.7761              2979.9114              2983.9388
 Red. masses --    99.0000                99.0000                99.0000
 Frc consts  --    99.0000                99.0000                99.0000
 IR Inten    --    99.0000                99.0000                99.0000
 Raman Activ --     0.0000                 0.0000                 0.0000
 Depolar     --     0.0000                 0.0000                 0.0000
 Atom AN      X      Y      Z        X      Y      Z        X      Y      Z
   1   6     0.01   0.01  -0.01    -0.00  -0.00  -0.01     0.01   0.02  -0.00
   2   6     0.00  -0.10   0.04     0.00   0.06   0.07    -0.00  -0.11  -0.00
   3   6     0.00   0.00   0.06     0.00  -0.02   0.09    -0.00  -0.08   0.00
   4   6     0.00   0.04   0.07     0.00   0.01   0.11     0.00  -0.06  -0.00
   5   6     0.00   0.09   0.07     0.00  -0.06   0.12    -0.00   0.00  -0.00
   6   6    -0.00   0.04   0.07    -0.00   0.01   0.11     0.00   0.06   0.00
   7   6    -0.00   0.00   0.06    -0.00  -0.02   0.09    -0.00   0.08  -0.00
   8   6    -0.00  -0.10   0.04    -0.00   0.06   0.06    -0.00   0.11   0.00
   9   6    -0.01   0.01  -0.01     0.00  -0.00  -0.01     0.01  -0.02   0.00
  10   1    -0.03  -0.02   0.00     0.01   0.01  -0.00    -0.04  -0.03   0.00
  11   1     0.00  -0.03   0.04    -0.00  -0.02   0.02     0.00  -0.03   0.04
  12   1     0.00  -0.00  -0.01     0.00   0.03   0.04     0.00  -0.03  -0.04
  13   1     0.01   0.15   0.22    -0.01  -0.21  -0.29     0.01   0.21   0.31
  14   1    -0.02   0.23  -0.36     0.00  -0.03   0.06    -0.01   0.19  -0.30
  15   1    -0.00   0.07  -0.10    -0.01   0.16  -0.24    -0.01   0.13  -0.23
  16   1    -0.00  -0.09  -0.11    -0.00  -0.08  -0.09     0.01   0.15   0.21
  17   1    -0.00  -0.16  -0.21    -0.00  -0.16  -0.21     0.00   0.11   0.16
  18   1    -0.00   0.04  -0.04    -0.00   0.12  -0.16    -0.00   0.09  -0.15
  19   1    -0.00  -0.26  -0.34    -0.00  -0.03  -0.01     0.00   0.00   0.00
  20   1     0.00  -0.05   0.10    -0.00   0.26  -0.42     0.00  -0.00   0.00
  21   1     0.01  -0.16  -0.21     0.00  -0.16  -0.21     0.00  -0.11  -0.16
  22   1     0.00   0.04  -0.04     0.00   0.12  -0.16    -0.00  -0.09   0.15
  23   1     0.00  -0.09  -0.11     0.00  -0.08  -0.09     0.01  -0.15  -0.21
  24   1     0.00   0.07  -0.10     0.01   0.15  -0.23    -0.01  -0.13   0.23
  25   1     0.02   0.23  -0.37    -0.00  -0.02   0.06    -0.01  -0.18   0.30
  26   1    -0.01   0.15   0.22     0.01  -0.21  -0.29     0.01  -0.21  -0.31
  27   1    -0.00  -0.03   0.04     0.00  -0.02   0.02     0.00   0.02  -0.04
  28   1     0.03  -0.02   0.00    -0.01   0.01  -0.00    -0.04   0.03  -0.00
  29   1    -0.00  -0.00  -0.01    -0.00   0.03   0.04     0.00   0.03   0.04
                     79                     80                     81
                        a                      a                      a 
 Frequencies --  2990.0502              3037.7763              3038.0672
 Red. masses --    99.0000                99.0000                99.0000
 Frc consts  --    99.0000                99.0000                99.0000
 IR Inten    --    99.0000                99.0000                99.0000
 Raman Activ --     0.0000                 0.0000                 0.0000
 Depolar     --     0.0000                 0.0000                 0.0000
 Atom AN      X      Y      Z        X      Y      Z        X      Y      Z
   1   6    -0.01  -0.02   0.00    -0.11   0.02  -0.00     0.11  -0.02   0.00
   2   6     0.00   0.06  -0.00    -0.00   0.00  -0.00     0.00  -0.00   0.00
   3   6    -0.00   0.08  -0.00     0.00   0.00  -0.00    -0.00  -0.00   0.00
   4   6     0.00   0.09  -0.00    -0.00   0.00  -0.00     0.00   0.00   0.00
   5   6    -0.00   0.10  -0.01     0.00   0.00  -0.00     0.00  -0.00   0.00
   6   6    -0.00   0.09  -0.00    -0.00  -0.00   0.00    -0.00   0.00   0.00
   7   6     0.00   0.08  -0.00     0.00  -0.00   0.00     0.00  -0.00   0.00
   8   6    -0.00   0.06  -0.00    -0.00  -0.00   0.00    -0.00  -0.00   0.00
   9   6     0.01  -0.02   0.00    -0.11  -0.02   0.00    -0.11  -0.02   0.00
  10   1     0.04   0.02  -0.00     0.41   0.31  -0.03    -0.40  -0.30   0.03
  11   1    -0.00   0.02  -0.04     0.00  -0.20   0.30    -0.00   0.19  -0.29
  12   1     0.00   0.03   0.04    -0.02  -0.20  -0.26     0.02   0.19   0.26
  13   1    -0.01  -0.12  -0.17    -0.00  -0.00  -0.00     0.00   0.00   0.00
  14   1     0.01  -0.11   0.17    -0.00  -0.00   0.01     0.00   0.00  -0.00
  15   1     0.01  -0.12   0.21     0.00  -0.00   0.01    -0.00   0.00  -0.01
  16   1    -0.01  -0.13  -0.19    -0.00  -0.00  -0.00     0.00   0.00   0.01
  17   1    -0.01  -0.17  -0.25     0.00  -0.00  -0.00    -0.00  -0.00  -0.00
  18   1     0.00  -0.15   0.25     0.00  -0.00   0.00    -0.00  -0.00   0.00
  19   1    -0.00  -0.18  -0.24     0.00  -0.00  -0.00     0.00   0.00   0.00
  20   1     0.00  -0.16   0.27     0.00  -0.00   0.00    -0.00   0.00  -0.01
  21   1     0.01  -0.17  -0.25     0.00   0.00   0.00     0.00  -0.00  -0.00
  22   1    -0.00  -0.15   0.25     0.00   0.00  -0.00     0.00  -0.00   0.00
  23   1     0.01  -0.13  -0.19    -0.00   0.00   0.00    -0.00   0.00   0.01
  24   1    -0.01  -0.12   0.21     0.00   0.00  -0.01     0.00   0.00  -0.01
  25   1    -0.01  -0.11   0.17    -0.00   0.00  -0.01    -0.00   0.00  -0.00
  26   1     0.01  -0.12  -0.17    -0.00   0.00   0.00    -0.00   0.00   0.00
  27   1     0.00   0.02  -0.04     0.00   0.19  -0.29     0.00   0.20  -0.30
  28   1    -0.04   0.02  -0.00     0.40  -0.30   0.03     0.41  -0.31   0.03
  29   1    -0.00   0.03   0.04    -0.02   0.19   0.26    -0.02   0.20   0.26
