29
 energy: -29.486996983352 gnorm: 0.000229515043 xtb: 6.6.1 (8d0f1dd)
C           -5.05681473903628        0.38020319983590        0.07659625796379
C           -3.79857325168271       -0.47842140128001        0.03919016318658
C           -2.53232599240309        0.37086022988103       -0.03778507327077
C           -1.26636818963502       -0.48214270019905       -0.04002675057747
C           -0.00001722705201        0.36915510445690       -0.08551708109210
C            1.26636585846958       -0.48213226341976       -0.04064281229548
C            2.53227378000748        0.37093843131593       -0.03559335031822
C            3.79841168610691       -0.47836601978196        0.04278254339775
C            5.05703336894707        0.37999106399969        0.07262310600416
H           -5.94592924182306       -0.24355742237345        0.13305060849447
H           -5.12530859490570        0.99604989756888       -0.81760201057254
H           -5.04317751730888        1.03762688867752        0.94337548857361
H           -3.83881577507453       -1.14552401489500       -0.82501887006866
H           -3.75883802331296       -1.10194041995038        0.93551865442496
H           -2.56021353184353        0.98028502215971       -0.94430584134470
H           -2.50470787382230        1.05226920553079        0.81614918432959
H           -1.28292411809562       -1.15399291892627       -0.90161977957459
H           -1.24971481222775       -1.10217914448350        0.85977022078516
H            0.00017053375759        1.05754211760369        0.76325391904581
H           -0.00024124526208        0.97139551406018       -0.99719590894462
H            1.28373828715217       -1.15209579071017       -0.90368057259115
H            1.24897169339446       -1.10413972808240        0.85778448429235
H            2.50325830352594        1.05174000436957        0.81877172075020
H            2.56162266340598        0.98100278524125       -0.94164507383866
H            3.76058849510435       -1.09729517302677        0.94236031223794
H            3.83636608277565       -1.14987616041452       -0.81811977934670
H            5.12408281439398        0.99017271701420       -0.82555917408664
H            5.94601561529262       -0.24375224734120        0.13129700534771
H            5.04527171581937        1.04286049000391        0.93527033209497
