29
 energy: -29.485198156316 gnorm: 0.027237877663 xtb: 6.6.1 (8d0f1dd)
C           -5.08473300000000        0.37808800000000        0.08414200000000
C           -3.82487000000000       -0.47255800000000        0.04021600000000
C           -2.54823900000000        0.36572300000000       -0.04106300000000
C           -1.27500000000000       -0.48032700000000       -0.04462900000000
C           -0.00003100000000        0.36158000000000       -0.09329900000000
C            1.27503900000000       -0.48035500000000       -0.04689000000000
C            2.54815400000000        0.36588600000000       -0.03742500000000
C            3.82465900000000       -0.47242500000000        0.04549300000000
C            5.08500200000000        0.37789900000000        0.07939500000000
H           -5.99037300000000       -0.23055900000000        0.14470900000000
H           -5.16950100000000        1.00546200000000       -0.80567900000000
H           -5.08043300000000        1.04566200000000        0.94849000000000
H           -3.86184600000000       -1.16246400000000       -0.81381500000000
H           -3.77638200000000       -1.12090900000000        0.92572000000000
H           -2.57599700000000        0.99637800000000       -0.93850700000000
H           -2.51807500000000        1.07009600000000        0.79972300000000
H           -1.29325000000000       -1.17505400000000       -0.89364500000000
H           -1.25782500000000       -1.12062400000000        0.84622400000000
H            0.00064600000000        1.07313200000000        0.74193000000000
H           -0.00078500000000        0.98422000000000       -0.99674800000000
H            1.29455900000000       -1.17120400000000       -0.89906900000000
H            1.25675000000000       -1.12476000000000        0.84098300000000
H            2.51559300000000        1.06843000000000        0.80481400000000
H            2.57833200000000        0.99843400000000       -0.93346300000000
H            3.77871000000000       -1.11512200000000        0.93525900000000
H            3.85862700000000       -1.16776100000000       -0.80425400000000
H            5.16732100000000        0.99872200000000       -0.81525200000000
H            5.99053100000000       -0.23078100000000        0.14134600000000
H            5.08361400000000        1.05186800000000        0.93877700000000
29
 energy: -29.486718817565 gnorm: 0.012385285082 xtb: 6.6.1 (8d0f1dd)
C           -5.07295177857744        0.38009157525493        0.08279915236137
C           -3.81506458736733       -0.47431570308217        0.04004589846587
C           -2.54265023482829        0.36856783654742       -0.04057772835781
C           -1.27270262468824       -0.48139339111355       -0.04376584736584
C           -0.00002792890251        0.36352589092304       -0.09186007360106
C            1.27272638993969       -0.48140414443870       -0.04562688192553
C            2.54256060962057        0.36870506408553       -0.03720046971788
C            3.81485452904915       -0.47419529951221        0.04496597627341
C            5.07321809699248        0.37991417909959        0.07815745998489
H           -5.96688451723519       -0.24037121740157        0.14253677743917
H           -5.15331807301587        0.99992255352433       -0.81002054423184
H           -5.06445239722361        1.04028417430539        0.95000358188053
H           -3.85884998111878       -1.14852953125183       -0.82238243862661
H           -3.77295665568272       -1.10666587679566        0.93381327111073
H           -2.57252152682309        0.98358003474691       -0.94632578689083
H           -2.51406876739721        1.05819898279237        0.80989587940679
H           -1.29178697347186       -1.16139777199035       -0.90215042049474
H           -1.25618040775169       -1.10721653018993        0.85504807219036
H            0.00059258740599        1.06093753991639        0.75273805424676
H           -0.00071716138649        0.97074073278627       -1.00333440846523
H            1.29307226649857       -1.15757793026317       -0.90700160307606
H            1.25510582508450       -1.11124099292405        0.85036789962922
H            2.51165756838113        1.05657361860291        0.81461185484387
H            2.57478715231606        0.98556982721002       -0.94161312653421
H            3.77523883962807       -1.10085376705896        0.94284679698047
H            3.85567591194639       -1.15387850067701       -0.81331367090405
H            5.15121422686845        0.99324443035956       -0.81936146491935
H            5.96704452403355       -0.24052674445154        0.13962377192550
H            5.06758208770570        1.04638796099604        0.94056301837210
29
 energy: -29.486966592742 gnorm: 0.001909581978 xtb: 6.6.1 (8d0f1dd)
C           -5.06454143668649        0.38112263844779        0.08144228660318
C           -3.80614129038641       -0.47625154149674        0.03981947161168
C           -2.53702091270775        0.37045699544226       -0.04002195640132
C           -1.26964341061482       -0.48277107910760       -0.04277186312168
C           -0.00002173341427        0.36639565218604       -0.09043709460959
C            1.26966607249625       -0.48277413384163       -0.04438237873785
C            2.53693459771394        0.37059052680745       -0.03687421508728
C            3.80593547273722       -0.47613749760395        0.04445723084025
C            5.06479924373494        0.38094963787567        0.07691211549850
H           -5.95239313230208       -0.24511356241243        0.14029924572768
H           -5.13997764141817        0.99738509838970       -0.81219057309957
H           -5.05236777921846        1.03807051490755        0.94889969992301
H           -3.85140742812445       -1.14269775226934       -0.82513784129318
H           -3.76647324469063       -1.10050631302901        0.93610823407526
H           -2.56741236559036        0.97826819698375       -0.94794077360886
H           -2.50938142866401        1.05273820630199        0.81362486688793
H           -1.28877683708412       -1.15524977544495       -0.90430909989007
H           -1.25361152885829       -1.10167170530382        0.85826787952447
H            0.00048389246541        1.05633185269239        0.75755155642864
H           -0.00059496514433        0.96640310716464       -1.00404257816473
H            1.28997373038901       -1.15182444939599       -0.90854514812119
H            1.25260349825361       -1.10525347759253        0.85417727701024
H            2.50718430698286        1.05134826400420        0.81790686496382
H            2.56947543047378        0.98001375775222       -0.94364543596947
H            3.76864743468835       -1.09489975675005        0.94463820200521
H            3.84837699090188       -1.14786067351728       -0.81656556023116
H            5.13806448152856        0.99087593949994       -0.82124193385867
H            5.95254123279735       -0.24525105921584        0.13773281925514
H            5.05527574974147        1.04398938852557        0.93975170183963
29
 energy: -29.486987661799 gnorm: 0.001651015788 xtb: 6.6.1 (8d0f1dd)
C           -5.06046433226699        0.38093263954920        0.08005402149493
C           -3.80144426916495       -0.47753401117010        0.03963481191734
C           -2.53411945401210        0.37111506810260       -0.03938190872091
C           -1.26782372339894       -0.48292036988925       -0.04194602419705
C           -0.00002128286442        0.36784216666832       -0.08899986121097
C            1.26784076317211       -0.48291226859877       -0.04324235950466
C            2.53404362206154        0.37124272706143       -0.03651329960931
C            3.80125279229502       -0.47742441565756        0.04397029137079
C            5.06071003550905        0.38076301433365        0.07569432142425
H           -5.94785549310305       -0.24515175464491        0.13818060507567
H           -5.13243728170395        0.99674936581519       -0.81370336868724
H           -5.04647889394673        1.03771414361639        0.94710692602694
H           -3.84485763188463       -1.14324163028080       -0.82501558329020
H           -3.76141788582926       -1.10065657153981        0.93576598499114
H           -2.56330427210003        0.97870326640891       -0.94664563640821
H           -2.50609353453962        1.05244606945419        0.81413489237208
H           -1.28592902354953       -1.15448881086778       -0.90326656696038
H           -1.25139966633570       -1.10141118742576        0.85848413140441
H            0.00038246051129        1.05656130717644        0.75902888106494
H           -0.00048561313077        0.96776515048343       -1.00174904384552
H            1.28701835663146       -1.15152020243037       -0.90682752492947
H            1.25047354910862       -1.10449480778241        0.85504726436009
H            2.50412501048914        1.05131999403310        0.81792793564120
H            2.56516233557213        0.98015830367696       -0.94283364342837
H            3.76347295886643       -1.09533416516982        0.94378930004309
H            3.84199816662957       -1.14813798686603       -0.81694643827356
H            5.13074185196889        0.99042927407905       -0.82242067150210
H            5.94798454454640       -0.24529252863543        0.13588155260959
H            5.04912291046903        1.04345522049994        0.93827401077149
29
 energy: -29.486994662651 gnorm: 0.000700151352 xtb: 6.6.1 (8d0f1dd)
C           -5.05830647569767        0.38042012355466        0.07848537738519
C           -3.79949031664367       -0.47805728387015        0.03942804659124
C           -2.53288162989557        0.37101671157648       -0.03866423407468
C           -1.26686416810009       -0.48251769871417       -0.04107800249918
C           -0.00002064179298        0.36861109050034       -0.08742546774391
C            1.26687475148458       -0.48250120097602       -0.04205159898353
C            2.53281553454689        0.37113585821043       -0.03609405799840
C            3.79931503110115       -0.47795373437831        0.04342951250199
C            5.05853752522678        0.38025454288637        0.07432051908425
H           -5.94682028421544       -0.24410161810257        0.13585971929167
H           -5.12824007305910        0.99638863865284       -0.81546357189017
H           -5.04406004516928        1.03763445680154        0.94535071814899
H           -3.84096095757454       -1.14475724023843       -0.82484534051076
H           -3.75912968155703       -1.10168800971955        0.93546855894637
H           -2.56113616133274        0.97986392352123       -0.94537515581387
H           -2.50473270049521        1.05273899529493        0.81480463376383
H           -1.28407059536086       -1.15458572249423       -0.90228457693217
H           -1.25016235290247       -1.10206723372558        0.85886358199631
H            0.00027622118322        1.05749428584543        0.76073094909367
H           -0.00037010743081        0.97000488181031       -0.99946351582255
H            1.28504019205738       -1.15212667073842       -0.90513252361095
H            1.24932510533113       -1.10460359898936        0.85611682612422
H            2.50300319231767        1.05191296190095        0.81806530834557
H            2.56277991784206        0.98098142980334       -0.94208727554735
H            3.76104578134240       -1.09667261160488        0.94295090795524
H            3.83829931220483       -1.14937012689493       -0.81731197801896
H            5.12677081514452        0.99029353367350       -0.82381453888079
H            5.94692849613393       -0.24424150874916        0.13383463595494
H            5.04643131531093        1.04316982516342        0.93686554314379
29
 energy: -29.486996983339 gnorm: 0.000229639507 xtb: 6.6.1 (8d0f1dd)
C           -5.05681699704683        0.38017658875517        0.07657926987644
C           -3.79857088339838       -0.47844135893236        0.03917606863542
C           -2.53232780227779        0.37084703661031       -0.03779326551245
C           -1.26636552539695       -0.48214926101247       -0.04003201253657
C           -0.00001886143269        0.36915525361654       -0.08551643686113
C            1.26636852475331       -0.48212556180891       -0.04063923330357
C            2.53227196197248        0.37095175237147       -0.03558386358888
C            3.79841404141108       -0.47834620603036        0.04279496749272
C            5.05703112571591        0.38001741577666        0.07264142162893
H           -5.94592843087589       -0.24358878736334        0.13302942814721
H           -5.12531095613987        0.99602448851659       -0.81761816289837
H           -5.04318624321238        1.03759883617588        0.94335969549145
H           -3.83880689718967       -1.14554267491700       -0.82503426938803
H           -3.75883551906814       -1.10196173392864        0.93550361033486
H           -2.56021536830400        0.98027326503828       -0.94431306728983
H           -2.50471623233948        1.05225466646121        0.81614227775764
H           -1.28291492853067       -1.15399806265247       -0.90162627190594
H           -1.24971204237073       -1.10218718853267        0.85976393479420
H            0.00016233222122        1.05754078635111        0.76325576537514
H           -0.00024285060672        0.97139725321742       -0.99719421439188
H            1.28374747392648       -1.15208749184235       -0.90367810224599
H            1.24897448039913       -1.10413468558905        0.85778691696371
H            2.50324993852612        1.05175168234189        0.81878229440010
H            2.56162081379807        0.98101784131629       -0.94163441990322
H            3.76059095099595       -1.09727712736667        0.94237152407403
H            3.83637495921395       -1.14985464536616       -0.81810839475300
H            5.12408051150546        0.99020098747535       -0.82553955945097
H            5.94601643314567       -0.24372134326526        0.13131733548755
H            5.04526299060538        1.04288527458355        0.93528976357043
