 Entering Gaussian System
 *********************************************
 Gaussian 98:
 frequency output generated by the xtb code
 *********************************************
                         Standard orientation:
 --------------------------------------------------------------------
  Center     Atomic     Atomic              Coordinates (Angstroms)
  Number     Number      Type              X           Y           Z
 --------------------------------------------------------------------
    1          6             0       -3.574147   -0.284169    1.164488
    2          6             0       -2.668481   -0.561168   -0.029313
    3          6             0       -1.395402    0.281180    0.010366
    4          6             0       -0.490165   -0.005804   -1.185358
    5          6             0        0.728730    0.914971   -1.266237
    6          6             0        1.691867    0.819554   -0.081843
    7          6             0        2.327167   -0.559674    0.078643
    8          6             0        3.385460   -0.565052    1.175466
    9          1             0       -3.053941   -0.496627    2.096218
   10          1             0       -4.466282   -0.904814    1.120747
   11          1             0       -3.882306    0.759240    1.175944
   12          1             0       -2.397981   -1.619799   -0.041037
   13          1             0       -3.212685   -0.350126   -0.952965
   14          1             0       -1.663292    1.340649    0.014673
   15          1             0       -0.862039    0.068589    0.938401
   16          1             0       -0.164943   -1.047084   -1.152037
   17          1             0       -1.072236    0.121468   -2.102171
   18          1             0        1.277643    0.680941   -2.182227
   19          1             0        0.381030    1.948205   -1.346933
   20          1             0        2.487425    1.554473   -0.231667
   21          1             0        1.172702    1.088841    0.839547
   22          1             0        1.558707   -1.294295    0.324289
   23          1             0        2.784089   -0.858068   -0.867971
   24          1             0        2.947257   -0.277207    2.128941
   25          1             0        4.183065    0.137090    0.941503
   26          1             0        3.821436   -1.555647    1.283670
 --------------------------------------------------------------------
     1 basis functions        1 primitive gaussians
     1 alpha electrons        1 beta electrons
 
 Harmonic frequencies (cm**-1), IR intensities (km*mol⁻¹),
 Raman scattering activities (A**4/amu), Raman depolarization ratios,
 reduced masses (AMU), force constants (mDyne/A) and normal coordinates:
                      1                      2                      3
                        a                      a                      a 
 Frequencies --    35.0351                62.5219                70.7881
 Red. masses --     8.7028                 5.6971                 5.8907
 Frc consts  --     0.0000                 0.0000                 0.0000
 IR Inten    --     0.0007                 0.0112                 0.0105
 Raman Activ --     0.0000                 0.0000                 0.0000
 Depolar     --     0.0000                 0.0000                 0.0000
 Atom AN      X      Y      Z        X      Y      Z        X      Y      Z
   1   6     0.36  -0.20   0.23     0.01   0.01   0.08    -0.04  -0.06  -0.08
   2   6     0.13   0.04  -0.00    -0.25   0.30  -0.19    -0.07   0.10  -0.14
   3   6     0.16  -0.01  -0.05     0.11  -0.26   0.13     0.04  -0.08   0.05
   4   6     0.00   0.12  -0.20    -0.02  -0.15   0.01     0.03  -0.01   0.03
   5   6     0.05   0.06  -0.20    -0.03  -0.13  -0.03     0.02  -0.00   0.04
   6   6    -0.00   0.08  -0.16    -0.04  -0.03  -0.02    -0.00   0.03   0.06
   7   6    -0.30  -0.03   0.13     0.21   0.07  -0.09    -0.30  -0.08   0.33
   8   6    -0.39  -0.05   0.21     0.01   0.15   0.10     0.31   0.11  -0.26
   9   1     0.15  -0.13   0.02     0.00  -0.24  -0.03    -0.03  -0.11  -0.04
  10   1     0.09  -0.04   0.07    -0.09   0.14  -0.06    -0.04   0.03  -0.07
  11   1     0.12  -0.05   0.15     0.15   0.05   0.22     0.04  -0.00   0.05
  12   1     0.03   0.01  -0.08    -0.20   0.06  -0.24    -0.06   0.02  -0.11
  13   1    -0.01   0.08   0.04    -0.08   0.31  -0.00    -0.01   0.11  -0.03
  14   1     0.06   0.00   0.04     0.16  -0.04   0.16     0.05  -0.01   0.06
  15   1     0.08  -0.05  -0.04     0.01  -0.25   0.01    -0.00  -0.09   0.01
  16   1    -0.01   0.03  -0.11    -0.00  -0.04  -0.04     0.01  -0.00  -0.01
  17   1    -0.03   0.08  -0.03    -0.03  -0.01   0.02     0.00   0.01   0.01
  18   1     0.02  -0.00  -0.05    -0.01  -0.04  -0.01     0.01  -0.01   0.02
  19   1     0.03   0.02  -0.08    -0.02  -0.04  -0.02     0.00  -0.00   0.00
  20   1     0.04  -0.03  -0.08    -0.05   0.03   0.01     0.04  -0.05  -0.03
  21   1     0.01   0.10  -0.06    -0.03  -0.05  -0.01     0.02   0.10   0.00
  22   1    -0.14   0.05   0.06     0.09  -0.03  -0.09    -0.11   0.07   0.31
  23   1    -0.08  -0.08   0.06     0.13   0.08  -0.01    -0.26  -0.18   0.06
  24   1    -0.12   0.06   0.04    -0.07  -0.03   0.02     0.28   0.23  -0.05
  25   1    -0.06  -0.08   0.05    -0.03   0.11   0.10     0.13  -0.09  -0.31
  26   1    -0.18  -0.04   0.12     0.07   0.07   0.01     0.00   0.00   0.01
                      4                      5                      6
                        a                      a                      a 
 Frequencies --   104.2227               151.4814               202.7858
 Red. masses --     8.1032                 8.2960                 7.0257
 Frc consts  --     0.0000                 0.0000                 0.0000
 IR Inten    --     0.0155                 0.1265                 0.0349
 Raman Activ --     0.0000                 0.0000                 0.0000
 Depolar     --     0.0000                 0.0000                 0.0000
 Atom AN      X      Y      Z        X      Y      Z        X      Y      Z
   1   6     0.14  -0.28   0.20     0.30   0.28   0.13    -0.11  -0.06  -0.03
   2   6    -0.15   0.19  -0.13    -0.02  -0.11  -0.02     0.05   0.02   0.07
   3   6    -0.29   0.41  -0.29     0.03  -0.19  -0.27     0.05   0.02   0.13
   4   6    -0.05   0.00  -0.00     0.02  -0.05  -0.30    -0.28   0.36  -0.21
   5   6     0.06  -0.14   0.01    -0.03   0.05   0.10     0.08  -0.09  -0.10
   6   6    -0.02  -0.13   0.08    -0.33  -0.07   0.33    -0.04  -0.29  -0.02
   7   6     0.12  -0.07   0.07    -0.09   0.01   0.08     0.12  -0.21   0.07
   8   6     0.15   0.04   0.03     0.08   0.03  -0.08     0.12   0.23   0.09
   9   1     0.13  -0.14  -0.00     0.15   0.14   0.01    -0.01   0.13   0.01
  10   1     0.06  -0.12   0.08     0.06   0.11   0.16     0.06  -0.15   0.03
  11   1    -0.00  -0.09   0.17     0.12   0.09  -0.02    -0.18  -0.06  -0.10
  12   1     0.02   0.07  -0.12    -0.04  -0.04   0.04     0.03   0.01   0.02
  13   1    -0.13   0.08   0.02    -0.05  -0.06   0.01     0.03   0.00   0.01
  14   1    -0.13   0.11  -0.22     0.01  -0.05  -0.06     0.03   0.01   0.17
  15   1    -0.12   0.25  -0.03     0.03  -0.06  -0.09     0.07  -0.11  -0.02
  16   1    -0.04  -0.00   0.11     0.02  -0.01  -0.13    -0.18   0.07  -0.22
  17   1     0.05  -0.06  -0.05     0.03   0.03  -0.09    -0.12   0.29  -0.01
  18   1     0.03  -0.08   0.02     0.06   0.07   0.06     0.02  -0.09  -0.01
  19   1     0.05  -0.03  -0.03    -0.03   0.01   0.05     0.13   0.01  -0.04
  20   1    -0.02  -0.01   0.05    -0.12   0.03   0.21    -0.02  -0.07   0.04
  21   1    -0.03  -0.06   0.02    -0.17  -0.12   0.08    -0.04  -0.11  -0.01
  22   1     0.06  -0.04   0.02     0.02  -0.05   0.02     0.07  -0.09   0.04
  23   1     0.04  -0.01   0.02    -0.05   0.06  -0.01     0.06  -0.07   0.03
  24   1     0.04  -0.00   0.01     0.05  -0.08   0.02     0.01   0.08   0.01
  25   1     0.02   0.04   0.00    -0.04   0.08  -0.02    -0.03   0.12  -0.01
  26   1     0.08   0.03   0.00     0.10   0.03  -0.11     0.12   0.11   0.08
                      7                      8                      9
                        a                      a                      a 
 Frequencies --   227.4719               234.5565               265.3014
 Red. masses --     3.0437                 2.6526                 6.7433
 Frc consts  --     0.0000                 0.0000                 0.0000
 IR Inten    --     0.0708                 0.0232                 0.1871
 Raman Activ --     0.0000                 0.0000                 0.0000
 Depolar     --     0.0000                 0.0000                 0.0000
 Atom AN      X      Y      Z        X      Y      Z        X      Y      Z
   1   6     0.03   0.06   0.07    -0.02   0.03  -0.02     0.02   0.08   0.10
   2   6    -0.14  -0.06  -0.04     0.12  -0.20   0.14    -0.24  -0.15  -0.06
   3   6    -0.10  -0.11  -0.09    -0.06   0.09  -0.05    -0.20  -0.17  -0.15
   4   6    -0.02   0.02  -0.07    -0.08   0.13  -0.08    -0.03   0.06  -0.08
   5   6    -0.06   0.10   0.11     0.01   0.02  -0.01    -0.08   0.20   0.14
   6   6     0.07  -0.06   0.01    -0.02  -0.11   0.00     0.38  -0.02  -0.22
   7   6     0.22  -0.01  -0.13     0.04  -0.08  -0.01     0.06  -0.13   0.11
   8   6    -0.00   0.02   0.09     0.02   0.08   0.03     0.08   0.04   0.12
   9   1     0.07   0.08   0.00    -0.22  -0.42   0.01     0.06   0.04   0.00
  10   1     0.02  -0.01   0.10    -0.25   0.38  -0.28    -0.02   0.06   0.11
  11   1    -0.02   0.01  -0.02     0.41   0.13   0.20     0.04   0.04   0.01
  12   1    -0.06  -0.02  -0.01     0.08  -0.05   0.13    -0.10  -0.05  -0.01
  13   1    -0.06  -0.01   0.00     0.05  -0.15   0.01    -0.10  -0.04   0.00
  14   1    -0.03  -0.03  -0.01    -0.09   0.01  -0.06    -0.08  -0.05  -0.03
  15   1    -0.03  -0.04  -0.03     0.01   0.11  -0.01    -0.05  -0.04  -0.04
  16   1     0.01   0.01  -0.04    -0.05   0.03  -0.05     0.02   0.03  -0.06
  17   1     0.01   0.03  -0.03    -0.02   0.08  -0.02     0.02   0.05  -0.04
  18   1    -0.03   0.11   0.00    -0.00   0.00  -0.00    -0.09   0.19  -0.04
  19   1    -0.04   0.03   0.11     0.03   0.02   0.01    -0.06   0.06   0.20
  20   1    -0.00   0.01   0.02    -0.01  -0.02   0.02     0.16  -0.09  -0.22
  21   1     0.03  -0.07   0.03    -0.01  -0.05   0.00     0.24   0.13  -0.02
  22   1     0.07  -0.03  -0.10     0.03  -0.04  -0.00    -0.02   0.03   0.11
  23   1     0.12   0.04  -0.02     0.03  -0.02   0.00    -0.01  -0.15   0.06
  24   1     0.03   0.47  -0.10    -0.00   0.08  -0.01    -0.02  -0.15   0.07
  25   1     0.25  -0.34  -0.15     0.01   0.00  -0.02    -0.09   0.16   0.11
  26   1    -0.34  -0.10   0.39    -0.00   0.03   0.07     0.18   0.07  -0.07
                     10                     11                     12
                        a                      a                      a 
 Frequencies --   295.1800               399.7358               416.6340
 Red. masses --     7.8778                 8.5270                 8.6600
 Frc consts  --     0.0000                 0.0000                 0.0000
 IR Inten    --     0.3245                 0.0600                 0.0314
 Raman Activ --     0.0000                 0.0000                 0.0000
 Depolar     --     0.0000                 0.0000                 0.0000
 Atom AN      X      Y      Z        X      Y      Z        X      Y      Z
   1   6     0.11  -0.00  -0.09     0.42   0.12  -0.21    -0.14   0.01   0.14
   2   6     0.16   0.11  -0.06     0.03  -0.21  -0.32    -0.24  -0.13   0.03
   3   6     0.12   0.10   0.06    -0.21   0.02   0.24    -0.12  -0.14  -0.03
   4   6     0.15  -0.11   0.16    -0.19   0.15   0.34     0.27   0.14   0.10
   5   6    -0.14   0.18   0.13    -0.04  -0.14   0.04     0.47  -0.01  -0.01
   6   6    -0.07  -0.31  -0.02     0.00   0.01  -0.01     0.16   0.04   0.14
   7   6    -0.12  -0.34  -0.16    -0.01   0.01  -0.03    -0.14  -0.08  -0.18
   8   6    -0.21   0.31  -0.08    -0.03   0.02  -0.03    -0.23   0.17  -0.19
   9   1     0.03   0.01  -0.02     0.22   0.07  -0.11    -0.02   0.01   0.03
  10   1     0.05  -0.03  -0.03     0.06   0.11   0.10    -0.05   0.02   0.08
  11   1    -0.00  -0.01  -0.02     0.22   0.06  -0.10    -0.02   0.01   0.03
  12   1     0.05   0.03  -0.04     0.03  -0.05  -0.09    -0.10  -0.04   0.02
  13   1     0.06   0.05  -0.02     0.02  -0.05  -0.10    -0.09  -0.04   0.02
  14   1     0.04   0.03  -0.03    -0.12  -0.01   0.11    -0.06  -0.05   0.01
  15   1     0.00   0.06   0.04    -0.12  -0.02   0.09    -0.07  -0.04   0.01
  16   1     0.12  -0.00   0.14    -0.10   0.03   0.09     0.07   0.04   0.02
  17   1     0.04  -0.15   0.04    -0.07   0.06   0.11     0.12   0.05   0.00
  18   1    -0.07   0.21  -0.02    -0.04  -0.18   0.03     0.17  -0.18   0.06
  19   1    -0.10   0.04   0.20     0.06  -0.03  -0.09     0.22   0.01  -0.17
  20   1     0.01  -0.11   0.04    -0.00   0.00  -0.03     0.08  -0.01   0.12
  21   1     0.01  -0.13   0.02     0.01   0.02  -0.00    -0.00  -0.03   0.02
  22   1     0.00  -0.12  -0.01    -0.01   0.00  -0.02    -0.05  -0.01  -0.06
  23   1    -0.02  -0.11  -0.03    -0.00   0.01  -0.01    -0.05  -0.00  -0.06
  24   1    -0.13   0.14  -0.07    -0.01   0.01  -0.01    -0.11   0.08  -0.08
  25   1    -0.14   0.17  -0.07    -0.01   0.00  -0.01    -0.11   0.09  -0.08
  26   1     0.06   0.16   0.09    -0.01   0.01  -0.00     0.00   0.09   0.02
                     13                     14                     15
                        a                      a                      a 
 Frequencies --   500.2522               757.9348               779.9470
 Red. masses --     8.1642                 2.3217                 2.0275
 Frc consts  --     0.0000                 0.0000                 0.0000
 IR Inten    --     0.8118                13.4956                 8.2163
 Raman Activ --     0.0000                 0.0000                 0.0000
 Depolar     --     0.0000                 0.0000                 0.0000
 Atom AN      X      Y      Z        X      Y      Z        X      Y      Z
   1   6    -0.03   0.02   0.05     0.00   0.00  -0.00     0.00  -0.02   0.02
   2   6    -0.12  -0.10  -0.02     0.01   0.04  -0.00     0.07  -0.12   0.08
   3   6    -0.08  -0.05   0.09    -0.02   0.03  -0.12     0.08  -0.11   0.05
   4   6     0.19   0.17   0.15    -0.07   0.12  -0.08     0.05   0.03   0.02
   5   6     0.04   0.35  -0.45    -0.15   0.11   0.05    -0.04   0.06  -0.02
   6   6    -0.23  -0.13  -0.21    -0.11  -0.01   0.12    -0.12  -0.04   0.03
   7   6     0.07  -0.06   0.13    -0.05  -0.10   0.04    -0.08  -0.05   0.08
   8   6     0.17  -0.10   0.14     0.02  -0.02   0.03     0.01  -0.01   0.03
   9   1     0.01   0.02   0.00     0.01  -0.03  -0.01    -0.12   0.10   0.09
  10   1    -0.02   0.02   0.06     0.01  -0.01  -0.02    -0.03   0.04  -0.03
  11   1     0.01   0.01  -0.00    -0.01  -0.00   0.04     0.04   0.01  -0.17
  12   1    -0.05  -0.03  -0.01     0.08   0.03   0.11    -0.19  -0.08  -0.32
  13   1    -0.04  -0.02   0.00    -0.01  -0.13  -0.02     0.00   0.36   0.12
  14   1    -0.06  -0.02   0.06     0.10   0.03   0.24    -0.19  -0.08  -0.28
  15   1    -0.07  -0.04   0.05     0.09  -0.25  -0.15     0.03   0.32   0.09
  16   1     0.21   0.10   0.17     0.16   0.10   0.27     0.05   0.02  -0.11
  17   1     0.01  -0.17   0.04     0.07  -0.30  -0.12    -0.05   0.08   0.06
  18   1    -0.04   0.08  -0.15     0.05  -0.20   0.12     0.01  -0.06   0.03
  19   1     0.05   0.11  -0.09     0.11   0.06  -0.21     0.04   0.03  -0.07
  20   1    -0.07   0.01   0.15     0.09  -0.18  -0.23     0.07  -0.14  -0.15
  21   1    -0.23  -0.13  -0.12     0.19   0.24   0.08     0.08   0.19   0.01
  22   1     0.05  -0.04   0.07     0.10  -0.20  -0.17     0.07  -0.18  -0.20
  23   1     0.04  -0.05   0.06     0.12   0.20  -0.00     0.15   0.22   0.02
  24   1     0.08  -0.05   0.06     0.07   0.03   0.03     0.13   0.03   0.06
  25   1     0.06  -0.05   0.05    -0.02   0.00  -0.08    -0.03  -0.01  -0.12
  26   1     0.02  -0.05  -0.01     0.04   0.01   0.01     0.03   0.01  -0.03
                     16                     17                     18
                        a                      a                      a 
 Frequencies --   808.6951               857.6103               890.6936
 Red. masses --     2.8418                 3.5518                 6.6460
 Frc consts  --     0.0000                 0.0000                 0.0000
 IR Inten    --     0.7204                 0.7845                 0.6047
 Raman Activ --     0.0000                 0.0000                 0.0000
 Depolar     --     0.0000                 0.0000                 0.0000
 Atom AN      X      Y      Z        X      Y      Z        X      Y      Z
   1   6    -0.04   0.03  -0.01     0.03  -0.08   0.04    -0.03  -0.00   0.05
   2   6    -0.11   0.08  -0.11     0.04  -0.12   0.06    -0.00  -0.03  -0.02
   3   6     0.00   0.03   0.07    -0.11   0.19  -0.00     0.04   0.02  -0.08
   4   6     0.16  -0.07   0.09    -0.08  -0.00  -0.10     0.23   0.19   0.08
   5   6     0.14  -0.08  -0.07     0.20  -0.17  -0.04     0.05  -0.19   0.19
   6   6    -0.04  -0.07  -0.08     0.16  -0.05  -0.02    -0.26  -0.35  -0.16
   7   6    -0.15   0.04   0.15    -0.07   0.11   0.10     0.02   0.27   0.02
   8   6    -0.06   0.01   0.02    -0.11   0.03  -0.03    -0.04   0.16  -0.11
   9   1     0.15  -0.09  -0.11    -0.16   0.13   0.13    -0.04   0.02   0.04
  10   1     0.02  -0.04   0.07    -0.07   0.09  -0.01    -0.02   0.01   0.00
  11   1    -0.05  -0.01   0.18     0.12   0.02  -0.25     0.00   0.00  -0.02
  12   1     0.08   0.04   0.25     0.06  -0.02  -0.23     0.00  -0.01  -0.03
  13   1     0.03  -0.25  -0.12    -0.11   0.13   0.12    -0.04  -0.00   0.02
  14   1     0.08   0.03  -0.03    -0.01   0.05   0.29     0.01   0.00   0.03
  15   1    -0.12  -0.01   0.08     0.08  -0.19  -0.11    -0.00  -0.04  -0.02
  16   1    -0.10  -0.07  -0.17    -0.11  -0.02   0.22     0.05   0.05   0.01
  17   1    -0.01   0.21   0.09     0.09  -0.15  -0.11     0.12   0.09  -0.01
  18   1    -0.03   0.18  -0.11    -0.01   0.23  -0.12    -0.01   0.00   0.02
  19   1    -0.08  -0.04   0.18    -0.06  -0.06   0.26     0.09  -0.02   0.16
  20   1     0.06  -0.10  -0.04     0.02   0.04   0.11    -0.05  -0.16  -0.25
  21   1    -0.06   0.12  -0.09    -0.10  -0.06  -0.07     0.05   0.09  -0.03
  22   1     0.02  -0.15  -0.28    -0.05   0.02  -0.12     0.13  -0.01   0.19
  23   1     0.21   0.27   0.07     0.10   0.09   0.06    -0.09   0.03  -0.03
  24   1     0.22   0.02   0.11     0.14   0.01   0.07    -0.09  -0.11  -0.02
  25   1    -0.06  -0.01  -0.21    -0.06  -0.01  -0.15     0.18  -0.10   0.24
  26   1     0.02   0.01  -0.11    -0.02   0.00  -0.11    -0.28  -0.09  -0.20
                     19                     20                     21
                        a                      a                      a 
 Frequencies --   920.8412               944.8475               956.1279
 Red. masses --     5.1284                 4.5029                 4.9439
 Frc consts  --     0.0000                 0.0000                 0.0000
 IR Inten    --     2.3822                 4.0965                 4.6841
 Raman Activ --     0.0000                 0.0000                 0.0000
 Depolar     --     0.0000                 0.0000                 0.0000
 Atom AN      X      Y      Z        X      Y      Z        X      Y      Z
   1   6     0.17   0.10  -0.03    -0.09   0.07  -0.10    -0.28  -0.13   0.11
   2   6     0.11   0.14   0.09    -0.00  -0.03   0.02    -0.07  -0.13  -0.14
   3   6    -0.08  -0.24  -0.22     0.06  -0.06   0.19     0.27   0.18  -0.01
   4   6    -0.02   0.13   0.16    -0.24   0.00  -0.22     0.11   0.04  -0.02
   5   6    -0.12  -0.00   0.20     0.09   0.02  -0.05    -0.18   0.01   0.17
   6   6     0.10  -0.08  -0.20     0.17  -0.16   0.09    -0.00  -0.02  -0.13
   7   6    -0.01   0.08   0.04     0.02   0.15   0.07     0.03   0.00  -0.03
   8   6    -0.14   0.04   0.04    -0.14   0.11  -0.08    -0.08   0.01   0.07
   9   1    -0.11  -0.06   0.06     0.23  -0.10  -0.19     0.12   0.08  -0.05
  10   1     0.16  -0.12  -0.29     0.02  -0.05   0.13    -0.22   0.15   0.38
  11   1    -0.14  -0.03   0.07    -0.06   0.00   0.22     0.17   0.04  -0.08
  12   1    -0.06   0.01   0.07    -0.21  -0.06   0.08     0.10  -0.00  -0.10
  13   1    -0.03   0.02   0.06     0.25   0.09  -0.12     0.05  -0.03  -0.07
  14   1    -0.04  -0.07  -0.06    -0.21  -0.07  -0.04     0.16   0.07  -0.04
  15   1    -0.03  -0.05  -0.05     0.18   0.20  -0.00     0.09   0.04  -0.02
  16   1     0.07   0.06   0.02     0.06   0.04   0.17     0.07   0.02  -0.05
  17   1     0.07   0.03  -0.00    -0.08  -0.27  -0.08     0.04   0.04  -0.01
  18   1    -0.13  -0.21   0.04     0.05   0.06  -0.01    -0.01  -0.17   0.11
  19   1     0.11   0.03  -0.06     0.11   0.04   0.08     0.02   0.01  -0.13
  20   1    -0.08   0.12   0.09     0.04  -0.03   0.07    -0.11   0.12  -0.01
  21   1    -0.05  -0.25  -0.03     0.05  -0.08   0.04     0.06  -0.20   0.06
  22   1    -0.10   0.10  -0.08     0.01   0.04   0.03    -0.10   0.10  -0.04
  23   1     0.18  -0.10   0.13     0.04   0.00   0.05     0.13  -0.16   0.10
  24   1     0.24  -0.02   0.14     0.06  -0.05   0.04     0.19  -0.00   0.11
  25   1    -0.06  -0.03  -0.19     0.04  -0.05  -0.00    -0.05  -0.02  -0.15
  26   1    -0.04  -0.01  -0.19    -0.15  -0.04  -0.19     0.00  -0.00  -0.11
                     22                     23                     24
                        a                      a                      a 
 Frequencies --   989.7324              1048.6177              1069.1334
 Red. masses --     4.9079                 6.4138                 4.0280
 Frc consts  --     0.0000                 0.0000                 0.0000
 IR Inten    --     1.6394                 0.1403                 1.6486
 Raman Activ --     0.0000                 0.0000                 0.0000
 Depolar     --     0.0000                 0.0000                 0.0000
 Atom AN      X      Y      Z        X      Y      Z        X      Y      Z
   1   6     0.10  -0.09  -0.02    -0.14  -0.01   0.14    -0.07   0.07   0.03
   2   6    -0.06   0.10   0.01     0.09  -0.02  -0.14     0.09  -0.10  -0.02
   3   6    -0.09   0.01   0.08     0.24  -0.09  -0.30     0.01   0.07  -0.14
   4   6    -0.14  -0.27  -0.04    -0.20   0.11   0.26     0.03  -0.08   0.15
   5   6     0.01   0.28  -0.12    -0.10  -0.04  -0.05    -0.02   0.11  -0.01
   6   6     0.16  -0.13   0.13     0.24  -0.02   0.09     0.03   0.16  -0.03
   7   6     0.02   0.04   0.05     0.00   0.04   0.20    -0.14  -0.23  -0.13
   8   6    -0.11   0.19  -0.08    -0.02  -0.02  -0.16     0.09   0.21   0.09
   9   1    -0.09   0.07   0.08    -0.02   0.03   0.03     0.03  -0.03  -0.03
  10   1    -0.02   0.05  -0.04    -0.07   0.04   0.10     0.01  -0.02   0.02
  11   1     0.09  -0.00  -0.18     0.01   0.01   0.01    -0.06   0.00   0.10
  12   1     0.20   0.08  -0.01     0.05   0.00  -0.04    -0.11  -0.06  -0.04
  13   1    -0.16  -0.10   0.06     0.02  -0.03  -0.04     0.10   0.08  -0.03
  14   1     0.21   0.06  -0.09     0.13  -0.01  -0.14    -0.11  -0.01   0.13
  15   1    -0.18  -0.05   0.10     0.08  -0.01  -0.09     0.16  -0.05  -0.14
  16   1     0.05  -0.05  -0.18     0.02   0.05   0.06    -0.31  -0.12   0.07
  17   1    -0.20  -0.01   0.10    -0.10  -0.01   0.09     0.18   0.17  -0.05
  18   1     0.07  -0.05   0.04    -0.35  -0.12  -0.18    -0.00  -0.02   0.01
  19   1     0.07   0.08  -0.16     0.10   0.04   0.07    -0.28  -0.08  -0.20
  20   1     0.15  -0.13   0.11     0.13  -0.04   0.22     0.16  -0.08   0.19
  21   1     0.11  -0.07   0.08    -0.18   0.06  -0.13    -0.03  -0.02  -0.01
  22   1     0.09  -0.05   0.07     0.08  -0.09   0.01     0.11  -0.19   0.01
  23   1     0.06  -0.02   0.05    -0.06   0.20  -0.04     0.04  -0.05   0.00
  24   1     0.06  -0.09   0.06    -0.16   0.01  -0.11     0.09  -0.11   0.10
  25   1     0.12  -0.08   0.08    -0.00   0.02   0.06     0.19  -0.09   0.17
  26   1    -0.23  -0.07  -0.25    -0.02   0.00   0.06    -0.18  -0.06  -0.17
                     25                     26                     27
                        a                      a                      a 
 Frequencies --  1084.3400              1095.3946              1113.3671
 Red. masses --     7.5395                 8.4393                 7.5281
 Frc consts  --     0.0000                 0.0000                 0.0000
 IR Inten    --     0.7955                 0.4202                 0.7970
 Raman Activ --     0.0000                 0.0000                 0.0000
 Depolar     --     0.0000                 0.0000                 0.0000
 Atom AN      X      Y      Z        X      Y      Z        X      Y      Z
   1   6    -0.05   0.19   0.31     0.07  -0.10  -0.24    -0.18   0.03   0.20
   2   6     0.13  -0.18  -0.38    -0.14   0.06   0.28     0.40   0.16  -0.13
   3   6     0.10   0.07   0.01    -0.06   0.04   0.01    -0.39  -0.17   0.11
   4   6     0.08   0.09  -0.01     0.15   0.02   0.00     0.00  -0.14  -0.14
   5   6    -0.10  -0.07  -0.20    -0.10  -0.00  -0.01     0.05   0.07   0.14
   6   6    -0.01   0.04   0.19    -0.02   0.15   0.00    -0.03   0.05  -0.15
   7   6     0.25  -0.05   0.14     0.34  -0.14   0.36     0.05  -0.03   0.11
   8   6    -0.20  -0.01  -0.15    -0.26  -0.05  -0.32    -0.03  -0.03  -0.09
   9   1    -0.19  -0.02   0.16     0.12  -0.01  -0.12    -0.00   0.04   0.04
  10   1     0.06  -0.06  -0.14    -0.01   0.01   0.04    -0.07   0.05   0.13
  11   1    -0.20  -0.01   0.14     0.10  -0.00  -0.07     0.01   0.03   0.05
  12   1    -0.02  -0.06  -0.06    -0.08   0.01   0.06     0.28   0.09  -0.13
  13   1    -0.04  -0.07  -0.06    -0.01   0.06   0.07     0.29   0.09  -0.13
  14   1    -0.10  -0.02   0.06    -0.00   0.01   0.05    -0.15  -0.06   0.05
  15   1    -0.10  -0.01   0.07     0.08   0.00  -0.06    -0.14  -0.06   0.05
  16   1    -0.05   0.00   0.04    -0.01  -0.01  -0.04     0.08  -0.01  -0.10
  17   1    -0.11  -0.01   0.08     0.14   0.11  -0.05     0.14   0.02  -0.12
  18   1     0.11   0.11   0.00    -0.05  -0.03  -0.01     0.00  -0.06   0.05
  19   1    -0.17  -0.06  -0.04    -0.13  -0.04  -0.09     0.07   0.03  -0.03
  20   1    -0.07   0.05  -0.11    -0.04   0.07   0.00     0.01   0.01   0.03
  21   1     0.15  -0.00   0.14    -0.07   0.08  -0.05    -0.13   0.04  -0.11
  22   1     0.04   0.03   0.08     0.18  -0.12   0.13     0.06  -0.06   0.02
  23   1     0.10  -0.12   0.09     0.16  -0.06   0.13     0.04   0.02   0.03
  24   1    -0.00   0.00  -0.02    -0.13   0.00  -0.12    -0.07   0.01  -0.05
  25   1    -0.07  -0.00  -0.10    -0.09   0.01  -0.08    -0.02   0.01   0.00
  26   1    -0.04  -0.00  -0.08    -0.06  -0.01  -0.05    -0.00  -0.00   0.02
                     28                     29                     30
                        a                      a                      a 
 Frequencies --  1148.0431              1154.8850              1161.1529
 Red. masses --     8.1209                 7.5800                 7.0596
 Frc consts  --     0.0000                 0.0000                 0.0000
 IR Inten    --     0.1499                 2.0064                 0.4993
 Raman Activ --     0.0000                 0.0000                 0.0000
 Depolar     --     0.0000                 0.0000                 0.0000
 Atom AN      X      Y      Z        X      Y      Z        X      Y      Z
   1   6     0.00   0.03   0.04    -0.11  -0.11  -0.06    -0.01   0.07  -0.02
   2   6    -0.03  -0.09  -0.08     0.18   0.22   0.16     0.04  -0.13   0.03
   3   6     0.15   0.03  -0.11    -0.13  -0.27  -0.30    -0.07   0.16  -0.03
   4   6    -0.32  -0.21   0.16    -0.06   0.09   0.30     0.12  -0.21   0.06
   5   6     0.35   0.28   0.22     0.11   0.02  -0.27    -0.11   0.25  -0.07
   6   6    -0.25   0.06  -0.27    -0.12  -0.08   0.21     0.07  -0.39  -0.03
   7   6     0.13  -0.02   0.07     0.12   0.06  -0.10    -0.00   0.38   0.15
   8   6    -0.06  -0.07  -0.07    -0.07  -0.02   0.06     0.01  -0.17  -0.06
   9   1    -0.03  -0.01   0.02     0.11   0.04  -0.08     0.03  -0.04  -0.03
  10   1     0.02  -0.02  -0.03    -0.09   0.06   0.17     0.03  -0.03  -0.02
  11   1    -0.04  -0.00   0.03     0.13   0.02  -0.05    -0.05   0.00   0.08
  12   1    -0.06  -0.04  -0.01     0.11   0.07  -0.01    -0.09  -0.05  -0.05
  13   1    -0.04  -0.02  -0.00     0.12   0.08  -0.00     0.04   0.07   0.01
  14   1     0.10   0.02  -0.07    -0.02  -0.07  -0.05    -0.03   0.03   0.15
  15   1     0.10  -0.00  -0.06     0.01  -0.08  -0.10     0.07  -0.06  -0.08
  16   1    -0.24  -0.10   0.12    -0.17  -0.03   0.08    -0.18  -0.12  -0.08
  17   1    -0.10  -0.02   0.06    -0.07   0.05   0.11     0.13   0.15  -0.02
  18   1     0.23   0.06   0.15     0.09   0.15  -0.06    -0.00  -0.10   0.03
  19   1     0.21   0.11   0.04    -0.08  -0.02   0.04    -0.04   0.04  -0.20
  20   1    -0.07   0.02  -0.09    -0.05  -0.03  -0.16     0.08  -0.16   0.04
  21   1    -0.09   0.09  -0.11     0.20   0.02   0.17     0.12  -0.16   0.07
  22   1     0.06  -0.02   0.05    -0.06   0.13   0.04    -0.08   0.16  -0.03
  23   1     0.08  -0.09   0.07    -0.02  -0.11  -0.01    -0.08   0.16  -0.02
  24   1    -0.03   0.02  -0.04     0.09   0.02   0.06    -0.10   0.08  -0.10
  25   1    -0.06   0.02  -0.05    -0.05   0.00  -0.10    -0.11   0.08  -0.06
  26   1     0.03   0.01   0.03     0.03   0.01  -0.03     0.13   0.04   0.16
                     31                     32                     33
                        a                      a                      a 
 Frequencies --  1217.3504              1230.1633              1258.6316
 Red. masses --     5.1655                 4.5282                 3.5131
 Frc consts  --     0.0000                 0.0000                 0.0000
 IR Inten    --     0.3951                 0.5131                 0.1968
 Raman Activ --     0.0000                 0.0000                 0.0000
 Depolar     --     0.0000                 0.0000                 0.0000
 Atom AN      X      Y      Z        X      Y      Z        X      Y      Z
   1   6    -0.10   0.21  -0.12     0.10  -0.08   0.10    -0.09   0.05  -0.10
   2   6     0.14  -0.29   0.16    -0.14   0.07  -0.13     0.10   0.01   0.07
   3   6    -0.15   0.21  -0.08     0.02   0.00   0.14     0.13  -0.09  -0.03
   4   6     0.02  -0.14   0.04    -0.02  -0.09  -0.03    -0.01   0.16  -0.12
   5   6     0.02  -0.02  -0.03     0.01   0.07  -0.01    -0.03  -0.05   0.16
   6   6    -0.05   0.07   0.14    -0.09  -0.03   0.14     0.04  -0.03  -0.16
   7   6     0.11  -0.08  -0.14     0.26   0.06  -0.22     0.09   0.15  -0.08
   8   6    -0.08   0.03   0.09    -0.19  -0.05   0.17    -0.12  -0.10   0.10
   9   1     0.14  -0.12  -0.15    -0.12   0.05   0.12     0.09  -0.03  -0.09
  10   1     0.07  -0.09   0.03    -0.01   0.03  -0.08    -0.01  -0.01   0.08
  11   1    -0.12   0.02   0.24     0.02  -0.02  -0.13    -0.01   0.01   0.09
  12   1     0.04  -0.07  -0.24    -0.05   0.01   0.12     0.10   0.02  -0.09
  13   1    -0.06   0.15   0.15     0.11  -0.07  -0.14    -0.24  -0.02   0.17
  14   1     0.18   0.10   0.07    -0.05  -0.01  -0.02    -0.06  -0.04  -0.04
  15   1    -0.05  -0.14  -0.05     0.16   0.09  -0.04    -0.23  -0.02   0.15
  16   1     0.21   0.02  -0.21    -0.04  -0.03  -0.00    -0.04   0.04   0.15
  17   1    -0.10   0.03   0.08     0.22   0.08  -0.14    -0.13  -0.08   0.04
  18   1    -0.16  -0.04  -0.10    -0.24  -0.09  -0.12     0.19   0.03   0.14
  19   1     0.21   0.07   0.12     0.07   0.04   0.01    -0.28  -0.12  -0.14
  20   1    -0.02   0.01  -0.06     0.12  -0.15   0.05     0.21  -0.18   0.18
  21   1    -0.07   0.16  -0.04    -0.11   0.23  -0.09    -0.12   0.00  -0.12
  22   1     0.02   0.02   0.08     0.10   0.06   0.21     0.20  -0.08   0.20
  23   1    -0.06  -0.08  -0.06    -0.20  -0.08  -0.15    -0.17   0.06  -0.12
  24   1     0.11  -0.01   0.08     0.20   0.04   0.14     0.10   0.06   0.06
  25   1    -0.02  -0.03  -0.08    -0.11  -0.02  -0.22    -0.10   0.01  -0.15
  26   1    -0.01   0.00  -0.08     0.07   0.02  -0.09     0.09   0.03  -0.00
                     34                     35                     36
                        a                      a                      a 
 Frequencies --  1277.5224              1282.0486              1286.4796
 Red. masses --     3.3176                 2.3281                 1.8256
 Frc consts  --     0.0000                 0.0000                 0.0000
 IR Inten    --     0.0452                 0.1500                 0.1050
 Raman Activ --     0.0000                 0.0000                 0.0000
 Depolar     --     0.0000                 0.0000                 0.0000
 Atom AN      X      Y      Z        X      Y      Z        X      Y      Z
   1   6     0.00   0.17  -0.01    -0.04  -0.00  -0.05    -0.05   0.05  -0.05
   2   6    -0.14  -0.14   0.01     0.09  -0.01   0.03    -0.04   0.12  -0.08
   3   6    -0.07  -0.18   0.21     0.12  -0.03   0.02     0.10  -0.06   0.05
   4   6    -0.15   0.12   0.05     0.01   0.05  -0.12     0.06  -0.11   0.04
   5   6     0.07  -0.03  -0.08    -0.03   0.06   0.03     0.02   0.03   0.01
   6   6    -0.06   0.01  -0.00    -0.10  -0.08   0.17    -0.04  -0.02   0.04
   7   6    -0.03   0.04   0.02     0.09  -0.01  -0.05     0.00  -0.00  -0.02
   8   6     0.02  -0.02  -0.03     0.08   0.05  -0.08     0.03   0.01  -0.03
   9   1     0.02  -0.08  -0.04     0.03  -0.00  -0.03     0.05  -0.02  -0.06
  10   1     0.08  -0.07  -0.08    -0.01  -0.00   0.06    -0.01   0.01   0.02
  11   1    -0.09   0.01   0.10     0.01   0.00   0.03    -0.03   0.01   0.06
  12   1     0.40   0.08  -0.24    -0.07  -0.03   0.01     0.35   0.12  -0.10
  13   1    -0.06  -0.01   0.03    -0.09   0.00   0.07    -0.41  -0.17   0.17
  14   1     0.35   0.05  -0.29     0.04  -0.00  -0.05    -0.49  -0.15   0.18
  15   1     0.19   0.14  -0.03    -0.30  -0.04   0.19     0.36   0.14  -0.15
  16   1    -0.02   0.04   0.10    -0.21  -0.05   0.15     0.05  -0.02  -0.10
  17   1     0.35   0.04  -0.23     0.13  -0.04  -0.12    -0.09   0.01   0.09
  18   1    -0.00   0.06  -0.05    -0.14  -0.08  -0.05    -0.07  -0.05  -0.02
  19   1    -0.13  -0.05  -0.03     0.00   0.02  -0.02     0.05   0.02   0.03
  20   1     0.02  -0.04   0.02     0.14  -0.20   0.03     0.01  -0.02   0.02
  21   1     0.11  -0.06   0.09    -0.17   0.27  -0.12    -0.03   0.08  -0.02
  22   1     0.00  -0.00  -0.01    -0.32   0.30  -0.20    -0.09   0.07  -0.06
  23   1     0.05  -0.03   0.05     0.24  -0.24   0.17     0.08  -0.08   0.06
  24   1    -0.02   0.01  -0.02    -0.08  -0.02  -0.06    -0.03  -0.01  -0.02
  25   1    -0.00   0.01   0.02     0.06   0.00   0.08     0.02   0.00   0.03
  26   1     0.01   0.00   0.03    -0.03  -0.01  -0.00    -0.01  -0.00   0.01
                     37                     38                     39
                        a                      a                      a 
 Frequencies --  1291.5691              1310.8442              1350.0868
 Red. masses --     2.4622                 3.4201                 4.2949
 Frc consts  --     0.0000                 0.0000                 0.0000
 IR Inten    --     0.4061                 1.2624                 0.1836
 Raman Activ --     0.0000                 0.0000                 0.0000
 Depolar     --     0.0000                 0.0000                 0.0000
 Atom AN      X      Y      Z        X      Y      Z        X      Y      Z
   1   6    -0.05   0.02  -0.06    -0.02  -0.03  -0.03    -0.06  -0.08  -0.06
   2   6     0.09   0.03   0.00     0.09   0.03  -0.02     0.32   0.08  -0.17
   3   6     0.13  -0.07   0.06     0.07   0.03   0.00    -0.03   0.04   0.08
   4   6     0.04  -0.05  -0.11    -0.02  -0.06  -0.05    -0.29  -0.06   0.17
   5   6    -0.01   0.14  -0.04     0.05  -0.07  -0.05     0.05  -0.03  -0.07
   6   6     0.10  -0.01   0.03    -0.16   0.22  -0.04    -0.02  -0.01  -0.02
   7   6     0.02  -0.15   0.09    -0.20   0.20  -0.11     0.06  -0.05   0.05
   8   6    -0.04   0.06   0.05     0.00  -0.13  -0.05     0.00   0.03   0.01
   9   1     0.04  -0.01  -0.04     0.00   0.01  -0.01    -0.02   0.06   0.01
  10   1    -0.01  -0.00   0.06    -0.02   0.02   0.05    -0.07   0.05   0.14
  11   1     0.00   0.01   0.05     0.01   0.00   0.01     0.02  -0.01   0.06
  12   1     0.04   0.01  -0.03    -0.10  -0.02   0.05    -0.34  -0.09   0.19
  13   1    -0.21  -0.05   0.13    -0.10  -0.02   0.06    -0.35  -0.08   0.19
  14   1    -0.07  -0.05  -0.02    -0.08  -0.02   0.04     0.04   0.02  -0.05
  15   1    -0.20   0.01   0.16    -0.14  -0.03   0.08     0.05  -0.01  -0.02
  16   1    -0.35  -0.12   0.19    -0.02  -0.02   0.02     0.32   0.10  -0.17
  17   1     0.18   0.03  -0.13     0.08   0.04  -0.06     0.31   0.09  -0.18
  18   1    -0.18  -0.07  -0.09    -0.22  -0.05  -0.14     0.12   0.10   0.02
  19   1     0.20   0.11   0.01     0.21   0.06   0.17    -0.09  -0.04  -0.03
  20   1    -0.28   0.29  -0.21     0.15  -0.12   0.10     0.00  -0.01   0.01
  21   1     0.08  -0.10   0.07     0.26  -0.20   0.24     0.03  -0.01   0.02
  22   1     0.05  -0.10   0.00     0.28  -0.22   0.20    -0.08   0.06  -0.06
  23   1    -0.24   0.23  -0.18     0.25  -0.20   0.20    -0.07   0.06  -0.05
  24   1     0.03  -0.03   0.04     0.01   0.04  -0.02    -0.01  -0.01   0.00
  25   1     0.01  -0.02  -0.03    -0.03   0.03   0.03     0.00  -0.00  -0.01
  26   1    -0.06  -0.02  -0.06     0.11   0.03   0.13    -0.03  -0.01  -0.03
                     40                     41                     42
                        a                      a                      a 
 Frequencies --  1363.3474              1374.3069              1378.0873
 Red. masses --     4.6609                 5.1463                 5.4777
 Frc consts  --     0.0000                 0.0000                 0.0000
 IR Inten    --     3.5562                 0.1452                 1.7339
 Raman Activ --     0.0000                 0.0000                 0.0000
 Depolar     --     0.0000                 0.0000                 0.0000
 Atom AN      X      Y      Z        X      Y      Z        X      Y      Z
   1   6     0.01  -0.00   0.00     0.01   0.01   0.01     0.05   0.03  -0.00
   2   6     0.00  -0.01   0.00    -0.07  -0.01   0.05    -0.24  -0.04   0.15
   3   6     0.01   0.04  -0.01     0.06   0.01  -0.05     0.36   0.09  -0.19
   4   6    -0.10   0.00  -0.09     0.01   0.00  -0.01    -0.31  -0.10   0.16
   5   6     0.48   0.14   0.21     0.02  -0.09   0.02     0.02   0.01  -0.07
   6   6    -0.11  -0.06  -0.00    -0.29   0.24  -0.24     0.06  -0.04   0.05
   7   6     0.00  -0.00   0.03     0.27  -0.19   0.21    -0.04   0.01  -0.02
   8   6     0.01  -0.00  -0.01    -0.02   0.08   0.01     0.01  -0.00   0.01
   9   1    -0.01   0.00   0.01     0.01  -0.01  -0.01    -0.00  -0.04  -0.00
  10   1    -0.00   0.00   0.00     0.01  -0.01  -0.02     0.03  -0.01  -0.04
  11   1    -0.00  -0.00  -0.00    -0.00   0.00  -0.02    -0.02  -0.00  -0.03
  12   1    -0.03  -0.01   0.01     0.06   0.02  -0.04     0.19   0.05  -0.12
  13   1     0.03   0.01  -0.01     0.07   0.01  -0.04     0.20   0.03  -0.11
  14   1    -0.01   0.01   0.03    -0.06  -0.02   0.06    -0.31  -0.08   0.16
  15   1    -0.04  -0.01   0.02    -0.07  -0.00   0.04    -0.31  -0.08   0.16
  16   1     0.13   0.05  -0.05     0.02   0.00  -0.02     0.25   0.07  -0.11
  17   1    -0.15  -0.10   0.04    -0.03  -0.03   0.01     0.27   0.12  -0.16
  18   1    -0.44  -0.15  -0.24    -0.05  -0.00  -0.03     0.11   0.05   0.03
  19   1    -0.45  -0.18  -0.20     0.11   0.02   0.10    -0.05  -0.01  -0.01
  20   1    -0.11   0.04  -0.14     0.26  -0.23   0.24    -0.05   0.04  -0.08
  21   1     0.10  -0.06   0.08     0.26  -0.19   0.20    -0.04   0.00  -0.02
  22   1    -0.03   0.02  -0.01    -0.22   0.18  -0.19     0.02  -0.01   0.03
  23   1    -0.00   0.03  -0.00    -0.24   0.17  -0.16     0.03   0.01   0.01
  24   1    -0.01  -0.00  -0.01    -0.04  -0.04   0.00    -0.00   0.00  -0.00
  25   1    -0.01   0.01   0.00     0.02  -0.02  -0.05    -0.00   0.00   0.00
  26   1    -0.01  -0.00   0.01    -0.06  -0.02  -0.07    -0.00  -0.00  -0.00
                     43                     44                     45
                        a                      a                      a 
 Frequencies --  1416.4717              1416.7583              1489.6054
 Red. masses --     3.1806                 3.1638                 1.8746
 Frc consts  --     0.0000                 0.0000                 0.0000
 IR Inten    --     0.7904                 0.7033                 0.2390
 Raman Activ --     0.0000                 0.0000                 0.0000
 Depolar     --     0.0000                 0.0000                 0.0000
 Atom AN      X      Y      Z        X      Y      Z        X      Y      Z
   1   6     0.27  -0.06  -0.33     0.04  -0.01  -0.04     0.00   0.00   0.01
   2   6    -0.07  -0.02   0.03    -0.01  -0.00   0.01     0.00  -0.02  -0.02
   3   6    -0.01  -0.01  -0.01     0.00  -0.00  -0.01    -0.01  -0.02  -0.02
   4   6     0.03   0.01  -0.01    -0.00   0.00   0.01     0.00   0.05   0.03
   5   6    -0.01  -0.00   0.00    -0.00   0.01   0.01     0.04   0.16  -0.20
   6   6    -0.00   0.01  -0.00    -0.01  -0.01  -0.01    -0.00  -0.04  -0.05
   7   6    -0.00   0.00  -0.00     0.05  -0.05   0.03     0.00   0.01   0.00
   8   6     0.04  -0.00   0.04    -0.30   0.03  -0.31    -0.01   0.01   0.00
   9   1    -0.43   0.11   0.25    -0.06   0.01   0.03     0.00  -0.02  -0.01
  10   1    -0.15   0.22   0.43    -0.02   0.03   0.06    -0.00   0.00   0.01
  11   1    -0.29  -0.10   0.40    -0.04  -0.01   0.05    -0.01  -0.00  -0.02
  12   1     0.09   0.02   0.01     0.01   0.00  -0.00     0.02   0.00   0.06
  13   1     0.06   0.06  -0.02     0.01   0.01  -0.00    -0.01   0.07   0.02
  14   1     0.01  -0.00  -0.01     0.00  -0.00   0.00     0.05   0.01   0.07
  15   1     0.01  -0.00  -0.01     0.00   0.00  -0.00    -0.03   0.07   0.03
  16   1    -0.03  -0.01   0.01    -0.00  -0.00  -0.01    -0.06  -0.02  -0.14
  17   1    -0.03  -0.01   0.02     0.00  -0.01  -0.00     0.03  -0.15  -0.05
  18   1    -0.00  -0.01   0.00     0.01   0.01   0.00     0.12  -0.58   0.21
  19   1     0.01   0.00   0.01    -0.00  -0.00  -0.02    -0.28  -0.04   0.56
  20   1     0.01  -0.00   0.00    -0.00  -0.00  -0.01    -0.05   0.09   0.13
  21   1     0.00  -0.00   0.00    -0.01  -0.01  -0.01     0.09   0.13   0.01
  22   1     0.01  -0.01  -0.00    -0.06   0.07   0.01     0.03  -0.04  -0.03
  23   1     0.00  -0.01   0.00    -0.02   0.08  -0.03    -0.04  -0.03  -0.01
  24   1    -0.06   0.01  -0.03     0.45  -0.09   0.22     0.00  -0.03   0.01
  25   1    -0.03   0.02  -0.06     0.24  -0.15   0.42     0.01  -0.01  -0.01
  26   1    -0.04  -0.02  -0.05     0.29   0.19   0.37     0.00   0.01   0.02
                     46                     47                     48
                        a                      a                      a 
 Frequencies --  1492.7804              1497.6700              1500.4899
 Red. masses --     1.9753                 1.8951                 1.8412
 Frc consts  --     0.0000                 0.0000                 0.0000
 IR Inten    --     0.4833                 0.7376                 0.2462
 Raman Activ --     0.0000                 0.0000                 0.0000
 Depolar     --     0.0000                 0.0000                 0.0000
 Atom AN      X      Y      Z        X      Y      Z        X      Y      Z
   1   6     0.00   0.00  -0.00     0.02   0.04   0.04    -0.01   0.01   0.00
   2   6     0.02   0.02   0.01    -0.02  -0.12  -0.15    -0.02  -0.05  -0.06
   3   6    -0.05  -0.12  -0.12    -0.00  -0.08  -0.11     0.02   0.05   0.07
   4   6    -0.02  -0.07  -0.07    -0.00   0.07   0.09     0.01   0.01   0.00
   5   6    -0.00  -0.01   0.00    -0.01  -0.04   0.05     0.01   0.04  -0.04
   6   6    -0.03  -0.09  -0.07     0.00   0.01   0.01     0.01   0.13   0.06
   7   6    -0.05  -0.13  -0.10     0.00   0.02   0.01    -0.04  -0.17  -0.09
   8   6     0.02   0.02   0.01    -0.01  -0.02   0.01    -0.01   0.00   0.03
   9   1    -0.01  -0.02   0.00     0.01  -0.19  -0.05    -0.00  -0.01  -0.00
  10   1    -0.00   0.01   0.02    -0.03   0.03   0.06     0.02  -0.02   0.00
  11   1    -0.01  -0.00  -0.01    -0.10  -0.03  -0.16     0.02   0.01  -0.01
  12   1    -0.05  -0.01  -0.06     0.20   0.04   0.42     0.09   0.02   0.17
  13   1    -0.00  -0.08  -0.02    -0.06   0.44   0.13    -0.02   0.18   0.05
  14   1     0.19   0.04   0.36     0.11   0.02   0.28    -0.09  -0.02  -0.19
  15   1    -0.04   0.39   0.10    -0.04   0.29   0.08     0.05  -0.19  -0.07
  16   1     0.10   0.04   0.20    -0.12  -0.04  -0.25    -0.03  -0.01   0.00
  17   1    -0.03   0.22   0.05     0.05  -0.26  -0.07    -0.00  -0.01   0.00
  18   1     0.00   0.02  -0.01    -0.02   0.15  -0.05     0.03  -0.12   0.05
  19   1     0.01   0.00  -0.02     0.07   0.01  -0.14    -0.05  -0.00   0.12
  20   1    -0.07   0.11   0.21     0.01  -0.02  -0.03     0.11  -0.18  -0.29
  21   1     0.15   0.20   0.02    -0.03  -0.02  -0.01    -0.20  -0.30  -0.02
  22   1    -0.08   0.19   0.34     0.03  -0.03  -0.02    -0.11   0.24   0.39
  23   1     0.26   0.31   0.02    -0.02  -0.04   0.00     0.28   0.39   0.01
  24   1    -0.05  -0.09   0.00     0.01   0.05  -0.01    -0.07   0.00  -0.03
  25   1     0.01  -0.04  -0.09    -0.00   0.01   0.02     0.03  -0.06  -0.05
  26   1     0.00   0.00   0.04     0.01   0.00  -0.03     0.05   0.01  -0.05
                     49                     50                     51
                        a                      a                      a 
 Frequencies --  1502.5853              1504.7042              1505.3741
 Red. masses --     1.8219                 1.9160                 1.5430
 Frc consts  --     0.0000                 0.0000                 0.0000
 IR Inten    --     0.2858                 0.0783                 2.2629
 Raman Activ --     0.0000                 0.0000                 0.0000
 Depolar     --     0.0000                 0.0000                 0.0000
 Atom AN      X      Y      Z        X      Y      Z        X      Y      Z
   1   6     0.01   0.00  -0.01    -0.03   0.00  -0.04     0.09  -0.16   0.10
   2   6     0.05   0.10   0.09    -0.00   0.05   0.06     0.02  -0.03   0.03
   3   6    -0.04  -0.09  -0.08     0.03   0.05   0.03     0.01   0.01   0.00
   4   6    -0.00   0.03   0.05     0.03   0.15   0.15     0.00   0.03   0.02
   5   6     0.01   0.02  -0.02    -0.01  -0.04   0.05    -0.00  -0.01   0.01
   6   6     0.03   0.14   0.10    -0.02  -0.08  -0.06    -0.00  -0.01  -0.01
   7   6     0.02  -0.00   0.02    -0.04  -0.04  -0.06    -0.01  -0.01  -0.01
   8   6    -0.03  -0.05   0.02    -0.02   0.02   0.04    -0.00   0.00   0.01
   9   1    -0.02  -0.00   0.01    -0.06   0.05   0.04     0.37   0.28  -0.13
  10   1    -0.01   0.01   0.02     0.07  -0.10   0.03    -0.33   0.49  -0.38
  11   1    -0.02  -0.00   0.01     0.13   0.04   0.07    -0.41  -0.13   0.08
  12   1    -0.17  -0.04  -0.30    -0.08  -0.02  -0.17     0.00  -0.01  -0.04
  13   1     0.01  -0.34  -0.09     0.03  -0.19  -0.06    -0.01  -0.01   0.01
  14   1     0.16   0.04   0.30    -0.06  -0.01  -0.08     0.01   0.00  -0.02
  15   1     0.01   0.34   0.07    -0.01  -0.10  -0.01    -0.02  -0.03   0.01
  16   1    -0.06  -0.03  -0.14    -0.23  -0.08  -0.44    -0.04  -0.01  -0.07
  17   1     0.03  -0.14  -0.04     0.08  -0.49  -0.12     0.02  -0.08  -0.02
  18   1     0.02  -0.05   0.02    -0.02   0.12  -0.03    -0.00   0.02  -0.01
  19   1    -0.01   0.00   0.06     0.05   0.01  -0.11     0.01   0.00  -0.02
  20   1     0.11  -0.18  -0.33    -0.06   0.10   0.18    -0.01   0.01   0.02
  21   1    -0.24  -0.31  -0.04     0.13   0.17   0.02     0.02   0.02   0.00
  22   1     0.00  -0.01  -0.03    -0.00   0.06   0.19    -0.01   0.02   0.05
  23   1    -0.03  -0.02  -0.01     0.13   0.14   0.02     0.03   0.04   0.00
  24   1     0.02   0.19  -0.05    -0.10  -0.07  -0.02    -0.02  -0.00  -0.01
  25   1     0.01   0.02   0.10     0.07  -0.12  -0.10     0.01  -0.02  -0.01
  26   1     0.06   0.01  -0.14     0.10   0.04  -0.02     0.02   0.01  -0.01
                     52                     53                     54
                        a                      a                      a 
 Frequencies --  1505.9053              1508.1021              1508.9234
 Red. masses --     1.5452                 1.6580                 1.6680
 Frc consts  --     0.0000                 0.0000                 0.0000
 IR Inten    --     2.4484                 1.2668                 0.9415
 Raman Activ --     0.0000                 0.0000                 0.0000
 Depolar     --     0.0000                 0.0000                 0.0000
 Atom AN      X      Y      Z        X      Y      Z        X      Y      Z
   1   6    -0.00   0.00   0.00     0.13   0.13   0.08    -0.03  -0.03  -0.01
   2   6    -0.00  -0.01  -0.01     0.06   0.08   0.06    -0.01  -0.02  -0.02
   3   6     0.00   0.01   0.01    -0.01   0.02   0.04    -0.01  -0.03  -0.03
   4   6    -0.01  -0.03  -0.03     0.01   0.00  -0.00    -0.01  -0.02  -0.01
   5   6     0.01   0.00  -0.01    -0.00   0.00  -0.00     0.00   0.01  -0.00
   6   6    -0.00  -0.04  -0.03     0.00  -0.01  -0.00     0.02   0.03   0.05
   7   6    -0.03   0.00   0.04    -0.01   0.01  -0.00    -0.00   0.10   0.04
   8   6    -0.15  -0.05   0.13    -0.01   0.05   0.01    -0.04   0.19   0.05
   9   1    -0.00  -0.02  -0.00    -0.04  -0.58  -0.10     0.01   0.13   0.02
  10   1     0.00  -0.01   0.01    -0.10   0.15   0.25     0.02  -0.03  -0.06
  11   1    -0.00   0.00  -0.01    -0.38  -0.10  -0.46     0.08   0.02   0.10
  12   1     0.02   0.01   0.05    -0.10  -0.02  -0.13     0.02   0.00   0.03
  13   1    -0.00   0.05   0.01    -0.01  -0.16  -0.02    -0.00   0.03   0.01
  14   1    -0.01  -0.00  -0.03    -0.04  -0.01  -0.11     0.04   0.01   0.08
  15   1    -0.00  -0.04  -0.01     0.01  -0.11  -0.03     0.00   0.09   0.02
  16   1     0.05   0.02   0.10    -0.00   0.00   0.01     0.02   0.01   0.03
  17   1    -0.02   0.11   0.03    -0.00   0.01   0.00    -0.00   0.04   0.01
  18   1    -0.01  -0.01  -0.00     0.00  -0.00   0.00     0.00  -0.00   0.00
  19   1    -0.01  -0.00   0.00    -0.00  -0.00   0.00    -0.00   0.00  -0.00
  20   1    -0.05   0.06   0.08    -0.00   0.00   0.00     0.04  -0.07  -0.14
  21   1     0.08   0.07   0.02     0.01   0.00   0.00    -0.10  -0.12  -0.02
  22   1    -0.01  -0.02  -0.06     0.00   0.00   0.01     0.05  -0.08  -0.12
  23   1    -0.01  -0.03   0.02     0.01   0.00   0.01    -0.07  -0.13   0.02
  24   1    -0.18   0.38  -0.18    -0.07  -0.14   0.01    -0.28  -0.50   0.03
  25   1     0.30  -0.31   0.11     0.05  -0.10  -0.11     0.22  -0.38  -0.41
  26   1     0.48   0.16  -0.47     0.05   0.03   0.06     0.20   0.12   0.19
                     55                     56                     57
                        a                      a                      a 
 Frequencies --  2955.3615              2955.5749              2957.7587
 Red. masses --     1.9516                 1.8259                 1.8604
 Frc consts  --     0.0000                 0.0000                 0.0000
 IR Inten    --    20.7444                 6.0747                20.9927
 Raman Activ --     0.0000                 0.0000                 0.0000
 Depolar     --     0.0000                 0.0000                 0.0000
 Atom AN      X      Y      Z        X      Y      Z        X      Y      Z
   1   6     0.00  -0.00   0.00     0.00  -0.00   0.00    -0.00   0.00  -0.00
   2   6    -0.01   0.01  -0.01    -0.02   0.05  -0.02     0.05  -0.08   0.05
   3   6     0.00  -0.02  -0.00     0.05  -0.10   0.05    -0.04   0.09  -0.03
   4   6     0.04  -0.06   0.05    -0.11   0.08  -0.14     0.03  -0.02   0.04
   5   6    -0.14   0.19   0.13    -0.03  -0.01   0.06     0.03  -0.05   0.00
   6   6     0.05   0.02  -0.04     0.09   0.05  -0.05     0.16   0.10  -0.08
   7   6     0.00  -0.01  -0.01    -0.03  -0.01   0.03    -0.06  -0.01   0.07
   8   6    -0.00  -0.00   0.00     0.00  -0.00  -0.00     0.00  -0.01  -0.00
   9   1    -0.00   0.00  -0.00    -0.01   0.00  -0.01     0.01  -0.00   0.02
  10   1     0.00   0.00   0.00     0.00  -0.00   0.00    -0.00   0.00  -0.00
  11   1    -0.00   0.00   0.00    -0.00   0.01   0.00     0.01  -0.02  -0.00
  12   1     0.01  -0.03  -0.00     0.04  -0.17  -0.00    -0.07   0.27   0.01
  13   1     0.02  -0.01   0.03     0.05  -0.01   0.08    -0.11   0.03  -0.19
  14   1    -0.01   0.05  -0.00    -0.08   0.32   0.01     0.08  -0.33  -0.00
  15   1     0.01  -0.01   0.02    -0.12   0.04  -0.21     0.07  -0.02   0.13
  16   1    -0.06   0.21  -0.00     0.06  -0.23  -0.01    -0.02   0.06   0.00
  17   1    -0.10   0.02  -0.17     0.33  -0.07   0.53    -0.09   0.02  -0.15
  18   1     0.31  -0.12  -0.52     0.14  -0.07  -0.22     0.01  -0.01  -0.01
  19   1     0.19  -0.59   0.06    -0.05   0.13   0.00    -0.07   0.21  -0.01
  20   1    -0.09  -0.09   0.01    -0.26  -0.24   0.05    -0.48  -0.44   0.09
  21   1    -0.09   0.05   0.16    -0.07   0.05   0.14    -0.09   0.07   0.19
  22   1     0.01   0.01  -0.00     0.08   0.08  -0.02     0.12   0.12  -0.03
  23   1    -0.02   0.01   0.04     0.04  -0.03  -0.08     0.10  -0.07  -0.21
  24   1     0.00  -0.00  -0.00    -0.00   0.00   0.01    -0.01   0.01   0.02
  25   1     0.00   0.00  -0.00    -0.00  -0.00  -0.00    -0.00  -0.00  -0.00
  26   1    -0.00   0.00  -0.00    -0.00   0.00  -0.00    -0.00   0.01  -0.00
                     58                     59                     60
                        a                      a                      a 
 Frequencies --  2959.8144              2968.5763              2971.5362
 Red. masses --     1.9101                 1.7838                 1.8089
 Frc consts  --     0.0000                 0.0000                 0.0000
 IR Inten    --     6.8423                11.5654                60.0530
 Raman Activ --     0.0000                 0.0000                 0.0000
 Depolar     --     0.0000                 0.0000                 0.0000
 Atom AN      X      Y      Z        X      Y      Z        X      Y      Z
   1   6    -0.01   0.01  -0.01    -0.00   0.01  -0.00    -0.01   0.02  -0.01
   2   6     0.10  -0.14   0.11     0.04  -0.05   0.04     0.07  -0.09   0.08
   3   6    -0.03   0.07  -0.03     0.02  -0.06   0.01     0.05  -0.17   0.02
   4   6    -0.08   0.05  -0.10    -0.01   0.02  -0.01     0.03   0.01   0.05
   5   6    -0.04   0.03   0.05     0.00   0.07  -0.06     0.02   0.01  -0.05
   6   6    -0.06  -0.04   0.03    -0.04  -0.04  -0.01     0.05   0.05  -0.01
   7   6     0.03  -0.00  -0.05    -0.12   0.01   0.18     0.06  -0.01  -0.09
   8   6    -0.00   0.00   0.00     0.02   0.00  -0.02    -0.01  -0.00   0.01
   9   1     0.02  -0.01   0.05     0.01  -0.00   0.02     0.02  -0.01   0.04
  10   1     0.00   0.00  -0.00    -0.00   0.00  -0.00    -0.01  -0.00  -0.00
  11   1     0.01  -0.04  -0.00     0.01  -0.03  -0.00     0.02  -0.06  -0.00
  12   1    -0.11   0.44   0.02    -0.04   0.14   0.01    -0.06   0.25   0.01
  13   1    -0.24   0.09  -0.42    -0.09   0.03  -0.16    -0.18   0.07  -0.30
  14   1     0.06  -0.25  -0.00    -0.06   0.23  -0.00    -0.16   0.60  -0.00
  15   1     0.06  -0.01   0.09    -0.02   0.00  -0.04    -0.03  -0.01  -0.06
  16   1     0.02  -0.09  -0.01     0.02  -0.06   0.00     0.04  -0.11   0.01
  17   1     0.25  -0.06   0.39     0.03  -0.00   0.04    -0.13   0.04  -0.20
  18   1     0.12  -0.05  -0.20    -0.13   0.07   0.20    -0.11   0.05   0.18
  19   1     0.02  -0.07   0.01     0.12  -0.34   0.01     0.04  -0.09  -0.00
  20   1     0.18   0.17  -0.04     0.16   0.14  -0.04    -0.20  -0.18   0.04
  21   1     0.03  -0.03  -0.07    -0.05   0.02   0.08     0.03  -0.00  -0.03
  22   1    -0.05  -0.05   0.01     0.15   0.15  -0.03    -0.05  -0.05   0.00
  23   1    -0.07   0.05   0.16     0.30  -0.19  -0.62    -0.15   0.10   0.32
  24   1     0.01  -0.00  -0.02    -0.03   0.02   0.07     0.01  -0.01  -0.03
  25   1     0.00   0.00   0.00    -0.04  -0.04   0.01     0.02   0.02  -0.01
  26   1     0.00  -0.01   0.00    -0.00   0.01  -0.00     0.00  -0.01   0.00
                     61                     62                     63
                        a                      a                      a 
 Frequencies --  2975.8397              2977.4312              2985.9473
 Red. masses --     1.5657                 1.4899                 1.6933
 Frc consts  --     0.0000                 0.0000                 0.0000
 IR Inten    --   100.8327                15.8070                41.1731
 Raman Activ --     0.0000                 0.0000                 0.0000
 Depolar     --     0.0000                 0.0000                 0.0000
 Atom AN      X      Y      Z        X      Y      Z        X      Y      Z
   1   6    -0.00   0.01  -0.00     0.01   0.02   0.00     0.01  -0.00   0.01
   2   6     0.02  -0.05   0.00    -0.03  -0.13  -0.13    -0.02   0.02  -0.04
   3   6     0.01  -0.07  -0.01     0.03  -0.00   0.05    -0.07   0.02  -0.13
   4   6     0.04   0.01   0.07    -0.01   0.05   0.00    -0.03   0.10  -0.00
   5   6    -0.02  -0.10   0.12    -0.00   0.02  -0.01    -0.02   0.03   0.01
   6   6    -0.05  -0.05   0.01     0.01  -0.00  -0.01    -0.04   0.03   0.08
   7   6    -0.02   0.02   0.05     0.00  -0.01  -0.01    -0.09  -0.09   0.01
   8   6     0.01   0.00  -0.01    -0.00   0.00   0.00     0.01   0.01  -0.01
   9   1     0.00   0.00   0.00    -0.02   0.01  -0.03    -0.03   0.01  -0.05
  10   1    -0.01  -0.00  -0.00    -0.04  -0.03  -0.00    -0.01  -0.01   0.00
  11   1     0.01  -0.04  -0.00     0.02  -0.05   0.00    -0.00   0.01   0.00
  12   1    -0.05   0.17  -0.00    -0.18   0.64  -0.02     0.00  -0.03  -0.00
  13   1    -0.01  -0.00  -0.02     0.31  -0.15   0.51     0.07  -0.03   0.12
  14   1    -0.08   0.29  -0.01     0.02  -0.07   0.01    -0.03   0.06  -0.02
  15   1     0.03  -0.02   0.05    -0.13   0.06  -0.22     0.28  -0.12   0.48
  16   1     0.03  -0.09   0.01     0.06  -0.19   0.01     0.12  -0.36   0.02
  17   1    -0.17   0.04  -0.26    -0.02   0.01  -0.02    -0.01   0.02  -0.02
  18   1     0.27  -0.14  -0.43    -0.03   0.02   0.04     0.03  -0.01  -0.05
  19   1    -0.18   0.51  -0.02     0.03  -0.09   0.00     0.03  -0.10   0.01
  20   1     0.21   0.19  -0.04     0.00   0.00  -0.00    -0.06  -0.04   0.02
  21   1    -0.02  -0.00   0.02    -0.03   0.01   0.04     0.19  -0.09  -0.32
  22   1    -0.02  -0.02   0.01     0.02   0.02  -0.01     0.36   0.33  -0.12
  23   1     0.10  -0.06  -0.20    -0.03   0.02   0.06    -0.05   0.01   0.09
  24   1    -0.01   0.01   0.02     0.00  -0.00  -0.01    -0.01   0.01   0.02
  25   1    -0.02  -0.02   0.01     0.00   0.00   0.00    -0.04  -0.04   0.01
  26   1    -0.00   0.00  -0.00     0.00  -0.01   0.00     0.01  -0.02  -0.00
                     64                     65                     66
                        a                      a                      a 
 Frequencies --  2988.5337              2992.5252              2996.1911
 Red. masses --     1.5492                 1.7182                 1.5916
 Frc consts  --     0.0000                 0.0000                 0.0000
 IR Inten    --     2.1224                57.7230               151.6533
 Raman Activ --     0.0000                 0.0000                 0.0000
 Depolar     --     0.0000                 0.0000                 0.0000
 Atom AN      X      Y      Z        X      Y      Z        X      Y      Z
   1   6    -0.01  -0.01  -0.01    -0.01   0.00  -0.01     0.01   0.02   0.01
   2   6     0.01   0.03   0.04     0.02  -0.02   0.02    -0.01  -0.03  -0.03
   3   6     0.03   0.04   0.07     0.06  -0.02   0.11    -0.02  -0.04  -0.07
   4   6    -0.00   0.10   0.05     0.03  -0.10   0.01     0.01  -0.12  -0.04
   5   6     0.00   0.00  -0.00    -0.01  -0.02   0.03     0.03  -0.05  -0.03
   6   6     0.01  -0.07  -0.09    -0.06   0.03   0.11     0.02  -0.06  -0.10
   7   6    -0.05  -0.09  -0.03    -0.09  -0.09   0.02    -0.04  -0.08  -0.03
   8   6     0.00   0.03   0.00     0.02   0.01  -0.02    -0.00   0.03   0.01
   9   1     0.02  -0.01   0.03     0.03  -0.01   0.05    -0.02   0.01  -0.04
  10   1     0.03   0.02   0.00     0.01   0.01  -0.00    -0.04  -0.02  -0.00
  11   1    -0.01   0.03  -0.00     0.00  -0.01  -0.00     0.01  -0.04   0.00
  12   1     0.05  -0.17   0.01    -0.01   0.05   0.00    -0.03   0.12  -0.01
  13   1    -0.10   0.05  -0.16    -0.04   0.02  -0.07     0.06  -0.03   0.10
  14   1     0.06  -0.20   0.01     0.02  -0.03   0.01    -0.06   0.21  -0.01
  15   1    -0.16   0.08  -0.27    -0.24   0.10  -0.41     0.15  -0.07   0.26
  16   1     0.14  -0.40   0.03    -0.13   0.39  -0.02    -0.16   0.49  -0.03
  17   1    -0.12   0.05  -0.19    -0.00  -0.01  -0.01     0.11  -0.05   0.17
  18   1    -0.00   0.00   0.00     0.05  -0.03  -0.08    -0.07   0.03   0.11
  19   1    -0.00   0.00  -0.00    -0.03   0.08  -0.00    -0.04   0.12  -0.01
  20   1     0.17   0.14  -0.05    -0.02  -0.01   0.02     0.14   0.11  -0.04
  21   1    -0.22   0.10   0.37     0.24  -0.11  -0.42    -0.23   0.10   0.39
  22   1     0.30   0.28  -0.11     0.35   0.33  -0.12     0.25   0.23  -0.09
  23   1    -0.12   0.05   0.22    -0.03  -0.00   0.04    -0.10   0.05   0.18
  24   1     0.02  -0.01  -0.04    -0.02   0.02   0.05     0.03  -0.01  -0.05
  25   1    -0.05  -0.04   0.02    -0.06  -0.06   0.02    -0.06  -0.05   0.02
  26   1     0.02  -0.05   0.01     0.01  -0.02  -0.00     0.03  -0.06   0.01
                     67                     68                     69
                        a                      a                      a 
 Frequencies --  3028.0562              3028.9496              3030.7420
 Red. masses --     1.9598                 1.9578                 1.9073
 Frc consts  --     0.0000                 0.0000                 0.0000
 IR Inten    --    60.1251                66.5399                26.6458
 Raman Activ --     0.0000                 0.0000                 0.0000
 Depolar     --     0.0000                 0.0000                 0.0000
 Atom AN      X      Y      Z        X      Y      Z        X      Y      Z
   1   6    -0.05   0.04  -0.05     0.14  -0.19   0.16     0.06   0.08   0.05
   2   6    -0.01   0.01  -0.01     0.02  -0.03   0.02     0.00   0.01   0.01
   3   6    -0.00   0.00  -0.00     0.01  -0.01   0.01     0.00   0.00   0.00
   4   6     0.00  -0.00   0.00     0.00  -0.01   0.00     0.00  -0.00   0.00
   5   6    -0.00   0.00   0.00    -0.00  -0.00   0.00     0.00  -0.00  -0.00
   6   6    -0.01  -0.00   0.01    -0.00  -0.00   0.01    -0.00  -0.01  -0.01
   7   6    -0.04  -0.02   0.03    -0.01  -0.00   0.01    -0.01  -0.03  -0.01
   8   6    -0.20  -0.06   0.19    -0.06  -0.01   0.05     0.01  -0.25  -0.05
   9   1     0.10  -0.04   0.18    -0.34   0.12  -0.59    -0.09   0.05  -0.17
  10   1     0.03   0.03  -0.00    -0.00  -0.04   0.02    -0.20  -0.14  -0.01
  11   1     0.03  -0.14  -0.01    -0.15   0.58   0.02     0.07  -0.18   0.01
  12   1     0.00  -0.01  -0.00    -0.02   0.07   0.00     0.01  -0.03   0.00
  13   1     0.01  -0.00   0.02    -0.05   0.02  -0.08    -0.02   0.01  -0.02
  14   1     0.00  -0.00  -0.00    -0.00   0.02   0.00     0.00  -0.01   0.00
  15   1     0.00  -0.00   0.00    -0.03   0.01  -0.04    -0.01   0.00  -0.02
  16   1    -0.00   0.01  -0.00    -0.01   0.02  -0.00    -0.00   0.01  -0.00
  17   1    -0.00   0.00  -0.00    -0.01   0.00  -0.01    -0.00   0.00  -0.00
  18   1     0.01  -0.00  -0.01     0.00  -0.00  -0.01    -0.00   0.00   0.00
  19   1    -0.00   0.00   0.00    -0.00   0.01  -0.00    -0.00   0.01  -0.00
  20   1     0.01   0.02  -0.00     0.00   0.00  -0.00     0.04   0.03  -0.01
  21   1     0.02  -0.01  -0.04     0.01  -0.01  -0.02    -0.03   0.01   0.04
  22   1     0.08   0.08  -0.03     0.02   0.02  -0.01     0.08   0.07  -0.03
  23   1     0.04  -0.02  -0.07     0.01  -0.01  -0.02    -0.03   0.02   0.06
  24   1     0.26  -0.19  -0.57     0.08  -0.06  -0.17    -0.19   0.08   0.38
  25   1     0.45   0.42  -0.13     0.11   0.11  -0.03     0.38   0.30  -0.13
  26   1    -0.02  -0.03   0.03     0.00  -0.03   0.01    -0.23   0.52  -0.06
                     70                     71                     72
                        a                      a                      a 
 Frequencies --  3031.3399              3036.5026              3037.0760
 Red. masses --     1.9145                 1.2831                 1.2750
 Frc consts  --     0.0000                 0.0000                 0.0000
 IR Inten    --   100.4786                36.7620                27.3336
 Raman Activ --     0.0000                 0.0000                 0.0000
 Depolar     --     0.0000                 0.0000                 0.0000
 Atom AN      X      Y      Z        X      Y      Z        X      Y      Z
   1   6     0.14   0.20   0.09    -0.05  -0.00   0.03     0.12   0.01  -0.08
   2   6     0.01   0.02   0.02    -0.00   0.00   0.00     0.00  -0.00  -0.00
   3   6     0.00   0.01   0.01     0.00   0.00   0.00    -0.00  -0.00  -0.00
   4   6     0.00   0.01   0.00     0.00   0.00   0.00     0.00   0.00   0.00
   5   6    -0.00   0.00   0.00     0.00  -0.00   0.00    -0.00  -0.00   0.00
   6   6    -0.00   0.01   0.01     0.00  -0.00  -0.00    -0.00  -0.00  -0.00
   7   6     0.00   0.01   0.01    -0.00   0.00  -0.00    -0.00  -0.00  -0.00
   8   6    -0.01   0.10   0.03    -0.10   0.06  -0.09    -0.04   0.02  -0.04
   9   1    -0.18   0.11  -0.33    -0.10   0.04  -0.15     0.23  -0.08   0.35
  10   1    -0.49  -0.34  -0.02     0.22   0.16   0.02    -0.53  -0.39  -0.05
  11   1     0.17  -0.48   0.02     0.05  -0.19   0.00    -0.11   0.44  -0.01
  12   1     0.02  -0.08   0.00     0.00  -0.01   0.00    -0.00   0.01  -0.00
  13   1    -0.03   0.02  -0.05    -0.00   0.00  -0.00     0.00  -0.00   0.00
  14   1     0.01  -0.05   0.00     0.00  -0.00   0.00    -0.00   0.01  -0.00
  15   1    -0.03   0.01  -0.05    -0.00   0.00  -0.00     0.01  -0.00   0.01
  16   1     0.01  -0.03   0.00     0.00  -0.00   0.00    -0.00  -0.00   0.00
  17   1    -0.01   0.00  -0.01    -0.00   0.00  -0.00    -0.00   0.00  -0.00
  18   1     0.01  -0.00  -0.01     0.00  -0.00   0.00     0.00  -0.00  -0.00
  19   1     0.00  -0.01   0.00    -0.00   0.00  -0.00    -0.00   0.00  -0.00
  20   1    -0.02  -0.01   0.00     0.00   0.00  -0.00     0.01   0.01  -0.00
  21   1     0.02  -0.01  -0.03    -0.01   0.00   0.01    -0.00   0.00   0.01
  22   1    -0.03  -0.03   0.01     0.00   0.00  -0.00     0.00   0.00  -0.00
  23   1     0.02  -0.01  -0.03    -0.00   0.00   0.00    -0.00   0.00   0.00
  24   1     0.09  -0.04  -0.19    -0.19   0.12   0.37    -0.08   0.05   0.15
  25   1    -0.14  -0.11   0.05     0.29   0.28  -0.11     0.13   0.12  -0.05
  26   1     0.09  -0.21   0.03     0.26  -0.63   0.05     0.11  -0.26   0.02
