 Entering Gaussian System
 *********************************************
 Gaussian 98:
 frequency output generated by the xtb code
 *********************************************
                         Standard orientation:
 --------------------------------------------------------------------
  Center     Atomic     Atomic              Coordinates (Angstroms)
  Number     Number      Type              X           Y           Z
 --------------------------------------------------------------------
    1          6             0       -3.574147   -0.284169    1.164488
    2          6             0       -2.668481   -0.561168   -0.029313
    3          6             0       -1.395402    0.281180    0.010366
    4          6             0       -0.490165   -0.005804   -1.185358
    5          6             0        0.728730    0.914971   -1.266237
    6          6             0        1.691867    0.819554   -0.081843
    7          6             0        2.327167   -0.559674    0.078643
    8          6             0        3.385460   -0.565052    1.175466
    9          1             0       -3.053941   -0.496627    2.096218
   10          1             0       -4.466282   -0.904814    1.120747
   11          1             0       -3.882306    0.759240    1.175944
   12          1             0       -2.397981   -1.619799   -0.041037
   13          1             0       -3.212685   -0.350126   -0.952965
   14          1             0       -1.663292    1.340649    0.014673
   15          1             0       -0.862039    0.068589    0.938401
   16          1             0       -0.164943   -1.047084   -1.152037
   17          1             0       -1.072236    0.121468   -2.102171
   18          1             0        1.277643    0.680941   -2.182227
   19          1             0        0.381030    1.948205   -1.346933
   20          1             0        2.487425    1.554473   -0.231667
   21          1             0        1.172702    1.088841    0.839547
   22          1             0        1.558707   -1.294295    0.324289
   23          1             0        2.784089   -0.858068   -0.867971
   24          1             0        2.947257   -0.277207    2.128941
   25          1             0        4.183065    0.137090    0.941503
   26          1             0        3.821436   -1.555647    1.283670
 --------------------------------------------------------------------
     1 basis functions        1 primitive gaussians
     1 alpha electrons        1 beta electrons
 
 Harmonic frequencies (cm**-1), IR intensities (KM/Mole),
 Raman scattering activities (A**4/amu), Raman depolarization ratios,
 reduced masses (AMU), force constants (mDyne/A) and normal coordinates:
                      1                      2                      3
                        a                      a                      a 
 Frequencies --    35.0351                62.5219                70.7881
 Red. masses --    99.0000                99.0000                99.0000
 Frc consts  --    99.0000                99.0000                99.0000
 IR Inten    --    99.0000                99.0000                99.0000
 Raman Activ --     0.0000                 0.0000                 0.0000
 Depolar     --     0.0000                 0.0000                 0.0000
 Atom AN      X      Y      Z        X      Y      Z        X      Y      Z
   1   6     0.36  -0.20   0.23     0.01   0.01   0.08    -0.04  -0.06  -0.08
   2   6     0.13   0.04  -0.00    -0.25   0.30  -0.19    -0.07   0.10  -0.14
   3   6     0.16  -0.01  -0.05     0.11  -0.26   0.13     0.04  -0.08   0.05
   4   6     0.00   0.12  -0.20    -0.02  -0.15   0.01     0.03  -0.01   0.03
   5   6     0.05   0.06  -0.20    -0.03  -0.13  -0.03     0.02  -0.00   0.04
   6   6    -0.00   0.08  -0.16    -0.04  -0.03  -0.02    -0.00   0.03   0.06
   7   6    -0.30  -0.03   0.13     0.21   0.07  -0.09    -0.30  -0.08   0.33
   8   6    -0.39  -0.05   0.21     0.01   0.15   0.10     0.31   0.11  -0.26
   9   1     0.15  -0.13   0.02     0.00  -0.24  -0.03    -0.03  -0.11  -0.04
  10   1     0.09  -0.04   0.07    -0.09   0.14  -0.06    -0.04   0.03  -0.07
  11   1     0.12  -0.05   0.15     0.15   0.05   0.22     0.04  -0.00   0.05
  12   1     0.03   0.01  -0.08    -0.20   0.06  -0.24    -0.06   0.02  -0.11
  13   1    -0.01   0.08   0.04    -0.08   0.31  -0.00    -0.01   0.11  -0.03
  14   1     0.06   0.00   0.04     0.16  -0.04   0.16     0.05  -0.01   0.06
  15   1     0.08  -0.05  -0.04     0.01  -0.25   0.01    -0.00  -0.09   0.01
  16   1    -0.01   0.03  -0.11    -0.00  -0.04  -0.04     0.01  -0.00  -0.01
  17   1    -0.03   0.08  -0.03    -0.03  -0.01   0.02     0.00   0.01   0.01
  18   1     0.02  -0.00  -0.05    -0.01  -0.04  -0.01     0.01  -0.01   0.02
  19   1     0.03   0.02  -0.08    -0.02  -0.04  -0.02     0.00  -0.00   0.00
  20   1     0.04  -0.03  -0.08    -0.05   0.03   0.01     0.04  -0.05  -0.03
  21   1     0.01   0.10  -0.06    -0.03  -0.05  -0.01     0.02   0.10   0.00
  22   1    -0.14   0.05   0.06     0.09  -0.03  -0.09    -0.11   0.07   0.31
  23   1    -0.08  -0.08   0.06     0.13   0.08  -0.01    -0.26  -0.18   0.06
  24   1    -0.12   0.06   0.04    -0.07  -0.03   0.02     0.28   0.23  -0.05
  25   1    -0.06  -0.08   0.05    -0.03   0.11   0.10     0.13  -0.09  -0.31
  26   1    -0.18  -0.04   0.12     0.07   0.07   0.01     0.00   0.00   0.01
                      4                      5                      6
                        a                      a                      a 
 Frequencies --   104.2227               234.5565               151.4814
 Red. masses --    99.0000                99.0000                99.0000
 Frc consts  --    99.0000                99.0000                99.0000
 IR Inten    --    99.0000                99.0000                99.0000
 Raman Activ --     0.0000                 0.0000                 0.0000
 Depolar     --     0.0000                 0.0000                 0.0000
 Atom AN      X      Y      Z        X      Y      Z        X      Y      Z
   1   6     0.14  -0.28   0.20    -0.02   0.03  -0.02     0.30   0.28   0.13
   2   6    -0.15   0.19  -0.13     0.12  -0.20   0.14    -0.02  -0.11  -0.02
   3   6    -0.29   0.41  -0.29    -0.06   0.09  -0.05     0.03  -0.19  -0.27
   4   6    -0.05   0.00  -0.00    -0.08   0.13  -0.08     0.02  -0.05  -0.30
   5   6     0.06  -0.14   0.01     0.01   0.02  -0.01    -0.03   0.05   0.10
   6   6    -0.02  -0.13   0.08    -0.02  -0.11   0.00    -0.33  -0.07   0.33
   7   6     0.12  -0.07   0.07     0.04  -0.08  -0.01    -0.09   0.01   0.08
   8   6     0.15   0.04   0.03     0.02   0.08   0.03     0.08   0.03  -0.08
   9   1     0.13  -0.14  -0.00    -0.22  -0.42   0.01     0.15   0.14   0.01
  10   1     0.06  -0.12   0.08    -0.25   0.38  -0.28     0.06   0.11   0.16
  11   1    -0.00  -0.09   0.17     0.41   0.13   0.20     0.12   0.09  -0.02
  12   1     0.02   0.07  -0.12     0.08  -0.05   0.13    -0.04  -0.04   0.04
  13   1    -0.13   0.08   0.02     0.05  -0.15   0.01    -0.05  -0.06   0.01
  14   1    -0.13   0.11  -0.22    -0.09   0.01  -0.06     0.01  -0.05  -0.06
  15   1    -0.12   0.25  -0.03     0.01   0.11  -0.01     0.03  -0.06  -0.09
  16   1    -0.04  -0.00   0.11    -0.05   0.03  -0.05     0.02  -0.01  -0.13
  17   1     0.05  -0.06  -0.05    -0.02   0.08  -0.02     0.03   0.03  -0.09
  18   1     0.03  -0.08   0.02    -0.00   0.00  -0.00     0.06   0.07   0.06
  19   1     0.05  -0.03  -0.03     0.03   0.02   0.01    -0.03   0.01   0.05
  20   1    -0.02  -0.01   0.05    -0.01  -0.02   0.02    -0.12   0.03   0.21
  21   1    -0.03  -0.06   0.02    -0.01  -0.05   0.00    -0.17  -0.12   0.08
  22   1     0.06  -0.04   0.02     0.03  -0.04  -0.00     0.02  -0.05   0.02
  23   1     0.04  -0.01   0.02     0.03  -0.02   0.00    -0.05   0.06  -0.01
  24   1     0.04  -0.00   0.01    -0.00   0.08  -0.01     0.05  -0.08   0.02
  25   1     0.02   0.04   0.00     0.01   0.00  -0.02    -0.04   0.08  -0.02
  26   1     0.08   0.03   0.00    -0.00   0.03   0.07     0.10   0.03  -0.11
                      7                      8                      9
                        a                      a                      a 
 Frequencies --   227.4719               202.7858               265.3014
 Red. masses --    99.0000                99.0000                99.0000
 Frc consts  --    99.0000                99.0000                99.0000
 IR Inten    --    99.0000                99.0000                99.0000
 Raman Activ --     0.0000                 0.0000                 0.0000
 Depolar     --     0.0000                 0.0000                 0.0000
 Atom AN      X      Y      Z        X      Y      Z        X      Y      Z
   1   6     0.03   0.06   0.07    -0.11  -0.06  -0.03     0.02   0.08   0.10
   2   6    -0.14  -0.06  -0.04     0.05   0.02   0.07    -0.24  -0.15  -0.06
   3   6    -0.10  -0.11  -0.09     0.05   0.02   0.13    -0.20  -0.17  -0.15
   4   6    -0.02   0.02  -0.07    -0.28   0.36  -0.21    -0.03   0.06  -0.08
   5   6    -0.06   0.10   0.11     0.08  -0.09  -0.10    -0.08   0.20   0.14
   6   6     0.07  -0.06   0.01    -0.04  -0.29  -0.02     0.38  -0.02  -0.22
   7   6     0.22  -0.01  -0.13     0.12  -0.21   0.07     0.06  -0.13   0.11
   8   6    -0.00   0.02   0.09     0.12   0.23   0.09     0.08   0.04   0.12
   9   1     0.07   0.08   0.00    -0.01   0.13   0.01     0.06   0.04   0.00
  10   1     0.02  -0.01   0.10     0.06  -0.15   0.03    -0.02   0.06   0.11
  11   1    -0.02   0.01  -0.02    -0.18  -0.06  -0.10     0.04   0.04   0.01
  12   1    -0.06  -0.02  -0.01     0.03   0.01   0.02    -0.10  -0.05  -0.01
  13   1    -0.06  -0.01   0.00     0.03   0.00   0.01    -0.10  -0.04   0.00
  14   1    -0.03  -0.03  -0.01     0.03   0.01   0.17    -0.08  -0.05  -0.03
  15   1    -0.03  -0.04  -0.03     0.07  -0.11  -0.02    -0.05  -0.04  -0.04
  16   1     0.01   0.01  -0.04    -0.18   0.07  -0.22     0.02   0.03  -0.06
  17   1     0.01   0.03  -0.03    -0.12   0.29  -0.01     0.02   0.05  -0.04
  18   1    -0.03   0.11   0.00     0.02  -0.09  -0.01    -0.09   0.19  -0.04
  19   1    -0.04   0.03   0.11     0.13   0.01  -0.04    -0.06   0.06   0.20
  20   1    -0.00   0.01   0.02    -0.02  -0.07   0.04     0.16  -0.09  -0.22
  21   1     0.03  -0.07   0.03    -0.04  -0.11  -0.01     0.24   0.13  -0.02
  22   1     0.07  -0.03  -0.10     0.07  -0.09   0.04    -0.02   0.03   0.11
  23   1     0.12   0.04  -0.02     0.06  -0.07   0.03    -0.01  -0.15   0.06
  24   1     0.03   0.47  -0.10     0.01   0.08   0.01    -0.02  -0.15   0.07
  25   1     0.25  -0.34  -0.15    -0.03   0.12  -0.01    -0.09   0.16   0.11
  26   1    -0.34  -0.10   0.39     0.12   0.11   0.08     0.18   0.07  -0.07
                     10                     11                     12
                        a                      a                      a 
 Frequencies --   295.1800               399.7358               416.6340
 Red. masses --    99.0000                99.0000                99.0000
 Frc consts  --    99.0000                99.0000                99.0000
 IR Inten    --    99.0000                99.0000                99.0000
 Raman Activ --     0.0000                 0.0000                 0.0000
 Depolar     --     0.0000                 0.0000                 0.0000
 Atom AN      X      Y      Z        X      Y      Z        X      Y      Z
   1   6     0.11  -0.00  -0.09     0.42   0.12  -0.21    -0.14   0.01   0.14
   2   6     0.16   0.11  -0.06     0.03  -0.21  -0.32    -0.24  -0.13   0.03
   3   6     0.12   0.10   0.06    -0.21   0.02   0.24    -0.12  -0.14  -0.03
   4   6     0.15  -0.11   0.16    -0.19   0.15   0.34     0.27   0.14   0.10
   5   6    -0.14   0.18   0.13    -0.04  -0.14   0.04     0.47  -0.01  -0.01
   6   6    -0.07  -0.31  -0.02     0.00   0.01  -0.01     0.16   0.04   0.14
   7   6    -0.12  -0.34  -0.16    -0.01   0.01  -0.03    -0.14  -0.08  -0.18
   8   6    -0.21   0.31  -0.08    -0.03   0.02  -0.03    -0.23   0.17  -0.19
   9   1     0.03   0.01  -0.02     0.22   0.07  -0.11    -0.02   0.01   0.03
  10   1     0.05  -0.03  -0.03     0.06   0.11   0.10    -0.05   0.02   0.08
  11   1    -0.00  -0.01  -0.02     0.22   0.06  -0.10    -0.02   0.01   0.03
  12   1     0.05   0.03  -0.04     0.03  -0.05  -0.09    -0.10  -0.04   0.02
  13   1     0.06   0.05  -0.02     0.02  -0.05  -0.10    -0.09  -0.04   0.02
  14   1     0.04   0.03  -0.03    -0.12  -0.01   0.11    -0.06  -0.05   0.01
  15   1     0.00   0.06   0.04    -0.12  -0.02   0.09    -0.07  -0.04   0.01
  16   1     0.12  -0.00   0.14    -0.10   0.03   0.09     0.07   0.04   0.02
  17   1     0.04  -0.15   0.04    -0.07   0.06   0.11     0.12   0.05   0.00
  18   1    -0.07   0.21  -0.02    -0.04  -0.18   0.03     0.17  -0.18   0.06
  19   1    -0.10   0.04   0.20     0.06  -0.03  -0.09     0.22   0.01  -0.17
  20   1     0.01  -0.11   0.04    -0.00   0.00  -0.03     0.08  -0.01   0.12
  21   1     0.01  -0.13   0.02     0.01   0.02  -0.00    -0.00  -0.03   0.02
  22   1     0.00  -0.12  -0.01    -0.01   0.00  -0.02    -0.05  -0.01  -0.06
  23   1    -0.02  -0.11  -0.03    -0.00   0.01  -0.01    -0.05  -0.00  -0.06
  24   1    -0.13   0.14  -0.07    -0.01   0.01  -0.01    -0.11   0.08  -0.08
  25   1    -0.14   0.17  -0.07    -0.01   0.00  -0.01    -0.11   0.09  -0.08
  26   1     0.06   0.16   0.09    -0.01   0.01  -0.00     0.00   0.09   0.02
                     13                     14                     15
                        a                      a                      a 
 Frequencies --   500.2522               757.9348               779.9470
 Red. masses --    99.0000                99.0000                99.0000
 Frc consts  --    99.0000                99.0000                99.0000
 IR Inten    --    99.0000                99.0000                99.0000
 Raman Activ --     0.0000                 0.0000                 0.0000
 Depolar     --     0.0000                 0.0000                 0.0000
 Atom AN      X      Y      Z        X      Y      Z        X      Y      Z
   1   6    -0.03   0.02   0.05     0.00   0.00  -0.00     0.00  -0.02   0.02
   2   6    -0.12  -0.10  -0.02     0.01   0.04  -0.00     0.07  -0.12   0.08
   3   6    -0.08  -0.05   0.09    -0.02   0.03  -0.12     0.08  -0.11   0.05
   4   6     0.19   0.17   0.15    -0.07   0.12  -0.08     0.05   0.03   0.02
   5   6     0.04   0.35  -0.45    -0.15   0.11   0.05    -0.04   0.06  -0.02
   6   6    -0.23  -0.13  -0.21    -0.11  -0.01   0.12    -0.12  -0.04   0.03
   7   6     0.07  -0.06   0.13    -0.05  -0.10   0.04    -0.08  -0.05   0.08
   8   6     0.17  -0.10   0.14     0.02  -0.02   0.03     0.01  -0.01   0.03
   9   1     0.01   0.02   0.00     0.01  -0.03  -0.01    -0.12   0.10   0.09
  10   1    -0.02   0.02   0.06     0.01  -0.01  -0.02    -0.03   0.04  -0.03
  11   1     0.01   0.01  -0.00    -0.01  -0.00   0.04     0.04   0.01  -0.17
  12   1    -0.05  -0.03  -0.01     0.08   0.03   0.11    -0.19  -0.08  -0.32
  13   1    -0.04  -0.02   0.00    -0.01  -0.13  -0.02     0.00   0.36   0.12
  14   1    -0.06  -0.02   0.06     0.10   0.03   0.24    -0.19  -0.08  -0.28
  15   1    -0.07  -0.04   0.05     0.09  -0.25  -0.15     0.03   0.32   0.09
  16   1     0.21   0.10   0.17     0.16   0.10   0.27     0.05   0.02  -0.11
  17   1     0.01  -0.17   0.04     0.07  -0.30  -0.12    -0.05   0.08   0.06
  18   1    -0.04   0.08  -0.15     0.05  -0.20   0.12     0.01  -0.06   0.03
  19   1     0.05   0.11  -0.09     0.11   0.06  -0.21     0.04   0.03  -0.07
  20   1    -0.07   0.01   0.15     0.09  -0.18  -0.23     0.07  -0.14  -0.15
  21   1    -0.23  -0.13  -0.12     0.19   0.24   0.08     0.08   0.19   0.01
  22   1     0.05  -0.04   0.07     0.10  -0.20  -0.17     0.07  -0.18  -0.20
  23   1     0.04  -0.05   0.06     0.12   0.20  -0.00     0.15   0.22   0.02
  24   1     0.08  -0.05   0.06     0.07   0.03   0.03     0.13   0.03   0.06
  25   1     0.06  -0.05   0.05    -0.02   0.00  -0.08    -0.03  -0.01  -0.12
  26   1     0.02  -0.05  -0.01     0.04   0.01   0.01     0.03   0.01  -0.03
                     16                     17                     18
                        a                      a                      a 
 Frequencies --   808.6951               857.6103              1505.3741
 Red. masses --    99.0000                99.0000                99.0000
 Frc consts  --    99.0000                99.0000                99.0000
 IR Inten    --    99.0000                99.0000                99.0000
 Raman Activ --     0.0000                 0.0000                 0.0000
 Depolar     --     0.0000                 0.0000                 0.0000
 Atom AN      X      Y      Z        X      Y      Z        X      Y      Z
   1   6    -0.04   0.03  -0.01     0.03  -0.08   0.04     0.09  -0.16   0.10
   2   6    -0.11   0.08  -0.11     0.04  -0.12   0.06     0.02  -0.03   0.03
   3   6     0.00   0.03   0.07    -0.11   0.19  -0.00     0.01   0.01   0.00
   4   6     0.16  -0.07   0.09    -0.08  -0.00  -0.10     0.00   0.03   0.02
   5   6     0.14  -0.08  -0.07     0.20  -0.17  -0.04    -0.00  -0.01   0.01
   6   6    -0.04  -0.07  -0.08     0.16  -0.05  -0.02    -0.00  -0.01  -0.01
   7   6    -0.15   0.04   0.15    -0.07   0.11   0.10    -0.01  -0.01  -0.01
   8   6    -0.06   0.01   0.02    -0.11   0.03  -0.03    -0.00   0.00   0.01
   9   1     0.15  -0.09  -0.11    -0.16   0.13   0.13     0.37   0.28  -0.13
  10   1     0.02  -0.04   0.07    -0.07   0.09  -0.01    -0.33   0.49  -0.38
  11   1    -0.05  -0.01   0.18     0.12   0.02  -0.25    -0.41  -0.13   0.08
  12   1     0.08   0.04   0.25     0.06  -0.02  -0.23     0.00  -0.01  -0.04
  13   1     0.03  -0.25  -0.12    -0.11   0.13   0.12    -0.01  -0.01   0.01
  14   1     0.08   0.03  -0.03    -0.01   0.05   0.29     0.01   0.00  -0.02
  15   1    -0.12  -0.01   0.08     0.08  -0.19  -0.11    -0.02  -0.03   0.01
  16   1    -0.10  -0.07  -0.17    -0.11  -0.02   0.22    -0.04  -0.01  -0.07
  17   1    -0.01   0.21   0.09     0.09  -0.15  -0.11     0.02  -0.08  -0.02
  18   1    -0.03   0.18  -0.11    -0.01   0.23  -0.12    -0.00   0.02  -0.01
  19   1    -0.08  -0.04   0.18    -0.06  -0.06   0.26     0.01   0.00  -0.02
  20   1     0.06  -0.10  -0.04     0.02   0.04   0.11    -0.01   0.01   0.02
  21   1    -0.06   0.12  -0.09    -0.10  -0.06  -0.07     0.02   0.02   0.00
  22   1     0.02  -0.15  -0.28    -0.05   0.02  -0.12    -0.01   0.02   0.05
  23   1     0.21   0.27   0.07     0.10   0.09   0.06     0.03   0.04   0.00
  24   1     0.22   0.02   0.11     0.14   0.01   0.07    -0.02  -0.00  -0.01
  25   1    -0.06  -0.01  -0.21    -0.06  -0.01  -0.15     0.01  -0.02  -0.01
  26   1     0.02   0.01  -0.11    -0.02   0.00  -0.11     0.02   0.01  -0.01
                     19                     20                     21
                        a                      a                      a 
 Frequencies --  1505.9053              1508.1021              1508.9234
 Red. masses --    99.0000                99.0000                99.0000
 Frc consts  --    99.0000                99.0000                99.0000
 IR Inten    --    99.0000                99.0000                99.0000
 Raman Activ --     0.0000                 0.0000                 0.0000
 Depolar     --     0.0000                 0.0000                 0.0000
 Atom AN      X      Y      Z        X      Y      Z        X      Y      Z
   1   6    -0.00   0.00   0.00     0.13   0.13   0.08    -0.03  -0.03  -0.01
   2   6    -0.00  -0.01  -0.01     0.06   0.08   0.06    -0.01  -0.02  -0.02
   3   6     0.00   0.01   0.01    -0.01   0.02   0.04    -0.01  -0.03  -0.03
   4   6    -0.01  -0.03  -0.03     0.01   0.00  -0.00    -0.01  -0.02  -0.01
   5   6     0.01   0.00  -0.01    -0.00   0.00  -0.00     0.00   0.01  -0.00
   6   6    -0.00  -0.04  -0.03     0.00  -0.01  -0.00     0.02   0.03   0.05
   7   6    -0.03   0.00   0.04    -0.01   0.01  -0.00    -0.00   0.10   0.04
   8   6    -0.15  -0.05   0.13    -0.01   0.05   0.01    -0.04   0.19   0.05
   9   1    -0.00  -0.02  -0.00    -0.04  -0.58  -0.10     0.01   0.13   0.02
  10   1     0.00  -0.01   0.01    -0.10   0.15   0.25     0.02  -0.03  -0.06
  11   1    -0.00   0.00  -0.01    -0.38  -0.10  -0.46     0.08   0.02   0.10
  12   1     0.02   0.01   0.05    -0.10  -0.02  -0.13     0.02   0.00   0.03
  13   1    -0.00   0.05   0.01    -0.01  -0.16  -0.02    -0.00   0.03   0.01
  14   1    -0.01  -0.00  -0.03    -0.04  -0.01  -0.11     0.04   0.01   0.08
  15   1    -0.00  -0.04  -0.01     0.01  -0.11  -0.03     0.00   0.09   0.02
  16   1     0.05   0.02   0.10    -0.00   0.00   0.01     0.02   0.01   0.03
  17   1    -0.02   0.11   0.03    -0.00   0.01   0.00    -0.00   0.04   0.01
  18   1    -0.01  -0.01  -0.00     0.00  -0.00   0.00     0.00  -0.00   0.00
  19   1    -0.01  -0.00   0.00    -0.00  -0.00   0.00    -0.00   0.00  -0.00
  20   1    -0.05   0.06   0.08    -0.00   0.00   0.00     0.04  -0.07  -0.14
  21   1     0.08   0.07   0.02     0.01   0.00   0.00    -0.10  -0.12  -0.02
  22   1    -0.01  -0.02  -0.06     0.00   0.00   0.01     0.05  -0.08  -0.12
  23   1    -0.01  -0.03   0.02     0.01   0.00   0.01    -0.07  -0.13   0.02
  24   1    -0.18   0.38  -0.18    -0.07  -0.14   0.01    -0.28  -0.50   0.03
  25   1     0.30  -0.31   0.11     0.05  -0.10  -0.11     0.22  -0.38  -0.41
  26   1     0.48   0.16  -0.47     0.05   0.03   0.06     0.20   0.12   0.19
                     22                     23                     24
                        a                      a                      a 
 Frequencies --   890.6936               920.8412               944.8475
 Red. masses --    99.0000                99.0000                99.0000
 Frc consts  --    99.0000                99.0000                99.0000
 IR Inten    --    99.0000                99.0000                99.0000
 Raman Activ --     0.0000                 0.0000                 0.0000
 Depolar     --     0.0000                 0.0000                 0.0000
 Atom AN      X      Y      Z        X      Y      Z        X      Y      Z
   1   6    -0.03  -0.00   0.05     0.17   0.10  -0.03    -0.09   0.07  -0.10
   2   6    -0.00  -0.03  -0.02     0.11   0.14   0.09    -0.00  -0.03   0.02
   3   6     0.04   0.02  -0.08    -0.08  -0.24  -0.22     0.06  -0.06   0.19
   4   6     0.23   0.19   0.08    -0.02   0.13   0.16    -0.24   0.00  -0.22
   5   6     0.05  -0.19   0.19    -0.12  -0.00   0.20     0.09   0.02  -0.05
   6   6    -0.26  -0.35  -0.16     0.10  -0.08  -0.20     0.17  -0.16   0.09
   7   6     0.02   0.27   0.02    -0.01   0.08   0.04     0.02   0.15   0.07
   8   6    -0.04   0.16  -0.11    -0.14   0.04   0.04    -0.14   0.11  -0.08
   9   1    -0.04   0.02   0.04    -0.11  -0.06   0.06     0.23  -0.10  -0.19
  10   1    -0.02   0.01   0.00     0.16  -0.12  -0.29     0.02  -0.05   0.13
  11   1     0.00   0.00  -0.02    -0.14  -0.03   0.07    -0.06   0.00   0.22
  12   1     0.00  -0.01  -0.03    -0.06   0.01   0.07    -0.21  -0.06   0.08
  13   1    -0.04  -0.00   0.02    -0.03   0.02   0.06     0.25   0.09  -0.12
  14   1     0.01   0.00   0.03    -0.04  -0.07  -0.06    -0.21  -0.07  -0.04
  15   1    -0.00  -0.04  -0.02    -0.03  -0.05  -0.05     0.18   0.20  -0.00
  16   1     0.05   0.05   0.01     0.07   0.06   0.02     0.06   0.04   0.17
  17   1     0.12   0.09  -0.01     0.07   0.03  -0.00    -0.08  -0.27  -0.08
  18   1    -0.01   0.00   0.02    -0.13  -0.21   0.04     0.05   0.06  -0.01
  19   1     0.09  -0.02   0.16     0.11   0.03  -0.06     0.11   0.04   0.08
  20   1    -0.05  -0.16  -0.25    -0.08   0.12   0.09     0.04  -0.03   0.07
  21   1     0.05   0.09  -0.03    -0.05  -0.25  -0.03     0.05  -0.08   0.04
  22   1     0.13  -0.01   0.19    -0.10   0.10  -0.08     0.01   0.04   0.03
  23   1    -0.09   0.03  -0.03     0.18  -0.10   0.13     0.04   0.00   0.05
  24   1    -0.09  -0.11  -0.02     0.24  -0.02   0.14     0.06  -0.05   0.04
  25   1     0.18  -0.10   0.24    -0.06  -0.03  -0.19     0.04  -0.05  -0.00
  26   1    -0.28  -0.09  -0.20    -0.04  -0.01  -0.19    -0.15  -0.04  -0.19
                     25                     26                     27
                        a                      a                      a 
 Frequencies --  1069.1334               989.7324               956.1279
 Red. masses --    99.0000                99.0000                99.0000
 Frc consts  --    99.0000                99.0000                99.0000
 IR Inten    --    99.0000                99.0000                99.0000
 Raman Activ --     0.0000                 0.0000                 0.0000
 Depolar     --     0.0000                 0.0000                 0.0000
 Atom AN      X      Y      Z        X      Y      Z        X      Y      Z
   1   6    -0.07   0.07   0.03     0.10  -0.09  -0.02    -0.28  -0.13   0.11
   2   6     0.09  -0.10  -0.02    -0.06   0.10   0.01    -0.07  -0.13  -0.14
   3   6     0.01   0.07  -0.14    -0.09   0.01   0.08     0.27   0.18  -0.01
   4   6     0.03  -0.08   0.15    -0.14  -0.27  -0.04     0.11   0.04  -0.02
   5   6    -0.02   0.11  -0.01     0.01   0.28  -0.12    -0.18   0.01   0.17
   6   6     0.03   0.16  -0.03     0.16  -0.13   0.13    -0.00  -0.02  -0.13
   7   6    -0.14  -0.23  -0.13     0.02   0.04   0.05     0.03   0.00  -0.03
   8   6     0.09   0.21   0.09    -0.11   0.19  -0.08    -0.08   0.01   0.07
   9   1     0.03  -0.03  -0.03    -0.09   0.07   0.08     0.12   0.08  -0.05
  10   1     0.01  -0.02   0.02    -0.02   0.05  -0.04    -0.22   0.15   0.38
  11   1    -0.06   0.00   0.10     0.09  -0.00  -0.18     0.17   0.04  -0.08
  12   1    -0.11  -0.06  -0.04     0.20   0.08  -0.01     0.10  -0.00  -0.10
  13   1     0.10   0.08  -0.03    -0.16  -0.10   0.06     0.05  -0.03  -0.07
  14   1    -0.11  -0.01   0.13     0.21   0.06  -0.09     0.16   0.07  -0.04
  15   1     0.16  -0.05  -0.14    -0.18  -0.05   0.10     0.09   0.04  -0.02
  16   1    -0.31  -0.12   0.07     0.05  -0.05  -0.18     0.07   0.02  -0.05
  17   1     0.18   0.17  -0.05    -0.20  -0.01   0.10     0.04   0.04  -0.01
  18   1    -0.00  -0.02   0.01     0.07  -0.05   0.04    -0.01  -0.17   0.11
  19   1    -0.28  -0.08  -0.20     0.07   0.08  -0.16     0.02   0.01  -0.13
  20   1     0.16  -0.08   0.19     0.15  -0.13   0.11    -0.11   0.12  -0.01
  21   1    -0.03  -0.02  -0.01     0.11  -0.07   0.08     0.06  -0.20   0.06
  22   1     0.11  -0.19   0.01     0.09  -0.05   0.07    -0.10   0.10  -0.04
  23   1     0.04  -0.05   0.00     0.06  -0.02   0.05     0.13  -0.16   0.10
  24   1     0.09  -0.11   0.10     0.06  -0.09   0.06     0.19  -0.00   0.11
  25   1     0.19  -0.09   0.17     0.12  -0.08   0.08    -0.05  -0.02  -0.15
  26   1    -0.18  -0.06  -0.17    -0.23  -0.07  -0.25     0.00  -0.00  -0.11
                     28                     29                     30
                        a                      a                      a 
 Frequencies --  1217.3504              1489.6054              1497.6700
 Red. masses --    99.0000                99.0000                99.0000
 Frc consts  --    99.0000                99.0000                99.0000
 IR Inten    --    99.0000                99.0000                99.0000
 Raman Activ --     0.0000                 0.0000                 0.0000
 Depolar     --     0.0000                 0.0000                 0.0000
 Atom AN      X      Y      Z        X      Y      Z        X      Y      Z
   1   6    -0.10   0.21  -0.12     0.00   0.00   0.01     0.02   0.04   0.04
   2   6     0.14  -0.29   0.16     0.00  -0.02  -0.02    -0.02  -0.12  -0.15
   3   6    -0.15   0.21  -0.08    -0.01  -0.02  -0.02    -0.00  -0.08  -0.11
   4   6     0.02  -0.14   0.04     0.00   0.05   0.03    -0.00   0.07   0.09
   5   6     0.02  -0.02  -0.03     0.04   0.16  -0.20    -0.01  -0.04   0.05
   6   6    -0.05   0.07   0.14    -0.00  -0.04  -0.05     0.00   0.01   0.01
   7   6     0.11  -0.08  -0.14     0.00   0.01   0.00     0.00   0.02   0.01
   8   6    -0.08   0.03   0.09    -0.01   0.01   0.00    -0.01  -0.02   0.01
   9   1     0.14  -0.12  -0.15     0.00  -0.02  -0.01     0.01  -0.19  -0.05
  10   1     0.07  -0.09   0.03    -0.00   0.00   0.01    -0.03   0.03   0.06
  11   1    -0.12   0.02   0.24    -0.01  -0.00  -0.02    -0.10  -0.03  -0.16
  12   1     0.04  -0.07  -0.24     0.02   0.00   0.06     0.20   0.04   0.42
  13   1    -0.06   0.15   0.15    -0.01   0.07   0.02    -0.06   0.44   0.13
  14   1     0.18   0.10   0.07     0.05   0.01   0.07     0.11   0.02   0.28
  15   1    -0.05  -0.14  -0.05    -0.03   0.07   0.03    -0.04   0.29   0.08
  16   1     0.21   0.02  -0.21    -0.06  -0.02  -0.14    -0.12  -0.04  -0.25
  17   1    -0.10   0.03   0.08     0.03  -0.15  -0.05     0.05  -0.26  -0.07
  18   1    -0.16  -0.04  -0.10     0.12  -0.58   0.21    -0.02   0.15  -0.05
  19   1     0.21   0.07   0.12    -0.28  -0.04   0.56     0.07   0.01  -0.14
  20   1    -0.02   0.01  -0.06    -0.05   0.09   0.13     0.01  -0.02  -0.03
  21   1    -0.07   0.16  -0.04     0.09   0.13   0.01    -0.03  -0.02  -0.01
  22   1     0.02   0.02   0.08     0.03  -0.04  -0.03     0.03  -0.03  -0.02
  23   1    -0.06  -0.08  -0.06    -0.04  -0.03  -0.01    -0.02  -0.04   0.00
  24   1     0.11  -0.01   0.08     0.00  -0.03   0.01     0.01   0.05  -0.01
  25   1    -0.02  -0.03  -0.08     0.01  -0.01  -0.01    -0.00   0.01   0.02
  26   1    -0.01   0.00  -0.08     0.00   0.01   0.02     0.01   0.00  -0.03
                     31                     32                     33
                        a                      a                      a 
 Frequencies --  1492.7804              1502.5853              1161.1529
 Red. masses --    99.0000                99.0000                99.0000
 Frc consts  --    99.0000                99.0000                99.0000
 IR Inten    --    99.0000                99.0000                99.0000
 Raman Activ --     0.0000                 0.0000                 0.0000
 Depolar     --     0.0000                 0.0000                 0.0000
 Atom AN      X      Y      Z        X      Y      Z        X      Y      Z
   1   6     0.00   0.00  -0.00     0.01   0.00  -0.01    -0.01   0.07  -0.02
   2   6     0.02   0.02   0.01     0.05   0.10   0.09     0.04  -0.13   0.03
   3   6    -0.05  -0.12  -0.12    -0.04  -0.09  -0.08    -0.07   0.16  -0.03
   4   6    -0.02  -0.07  -0.07    -0.00   0.03   0.05     0.12  -0.21   0.06
   5   6    -0.00  -0.01   0.00     0.01   0.02  -0.02    -0.11   0.25  -0.07
   6   6    -0.03  -0.09  -0.07     0.03   0.14   0.10     0.07  -0.39  -0.03
   7   6    -0.05  -0.13  -0.10     0.02  -0.00   0.02    -0.00   0.38   0.15
   8   6     0.02   0.02   0.01    -0.03  -0.05   0.02     0.01  -0.17  -0.06
   9   1    -0.01  -0.02   0.00    -0.02  -0.00   0.01     0.03  -0.04  -0.03
  10   1    -0.00   0.01   0.02    -0.01   0.01   0.02     0.03  -0.03  -0.02
  11   1    -0.01  -0.00  -0.01    -0.02  -0.00   0.01    -0.05   0.00   0.08
  12   1    -0.05  -0.01  -0.06    -0.17  -0.04  -0.30    -0.09  -0.05  -0.05
  13   1    -0.00  -0.08  -0.02     0.01  -0.34  -0.09     0.04   0.07   0.01
  14   1     0.19   0.04   0.36     0.16   0.04   0.30    -0.03   0.03   0.15
  15   1    -0.04   0.39   0.10     0.01   0.34   0.07     0.07  -0.06  -0.08
  16   1     0.10   0.04   0.20    -0.06  -0.03  -0.14    -0.18  -0.12  -0.08
  17   1    -0.03   0.22   0.05     0.03  -0.14  -0.04     0.13   0.15  -0.02
  18   1     0.00   0.02  -0.01     0.02  -0.05   0.02    -0.00  -0.10   0.03
  19   1     0.01   0.00  -0.02    -0.01   0.00   0.06    -0.04   0.04  -0.20
  20   1    -0.07   0.11   0.21     0.11  -0.18  -0.33     0.08  -0.16   0.04
  21   1     0.15   0.20   0.02    -0.24  -0.31  -0.04     0.12  -0.16   0.07
  22   1    -0.08   0.19   0.34     0.00  -0.01  -0.03    -0.08   0.16  -0.03
  23   1     0.26   0.31   0.02    -0.03  -0.02  -0.01    -0.08   0.16  -0.02
  24   1    -0.05  -0.09   0.00     0.02   0.19  -0.05    -0.10   0.08  -0.10
  25   1     0.01  -0.04  -0.09     0.01   0.02   0.10    -0.11   0.08  -0.06
  26   1     0.00   0.00   0.04     0.06   0.01  -0.14     0.13   0.04   0.16
                     34                     35                     36
                        a                      a                      a 
 Frequencies --  1504.7042              1500.4899              1230.1633
 Red. masses --    99.0000                99.0000                99.0000
 Frc consts  --    99.0000                99.0000                99.0000
 IR Inten    --    99.0000                99.0000                99.0000
 Raman Activ --     0.0000                 0.0000                 0.0000
 Depolar     --     0.0000                 0.0000                 0.0000
 Atom AN      X      Y      Z        X      Y      Z        X      Y      Z
   1   6    -0.03   0.00  -0.04    -0.01   0.01   0.00     0.10  -0.08   0.10
   2   6    -0.00   0.05   0.06    -0.02  -0.05  -0.06    -0.14   0.07  -0.13
   3   6     0.03   0.05   0.03     0.02   0.05   0.07     0.02   0.00   0.14
   4   6     0.03   0.15   0.15     0.01   0.01   0.00    -0.02  -0.09  -0.03
   5   6    -0.01  -0.04   0.05     0.01   0.04  -0.04     0.01   0.07  -0.01
   6   6    -0.02  -0.08  -0.06     0.01   0.13   0.06    -0.09  -0.03   0.14
   7   6    -0.04  -0.04  -0.06    -0.04  -0.17  -0.09     0.26   0.06  -0.22
   8   6    -0.02   0.02   0.04    -0.01   0.00   0.03    -0.19  -0.05   0.17
   9   1    -0.06   0.05   0.04    -0.00  -0.01  -0.00    -0.12   0.05   0.12
  10   1     0.07  -0.10   0.03     0.02  -0.02   0.00    -0.01   0.03  -0.08
  11   1     0.13   0.04   0.07     0.02   0.01  -0.01     0.02  -0.02  -0.13
  12   1    -0.08  -0.02  -0.17     0.09   0.02   0.17    -0.05   0.01   0.12
  13   1     0.03  -0.19  -0.06    -0.02   0.18   0.05     0.11  -0.07  -0.14
  14   1    -0.06  -0.01  -0.08    -0.09  -0.02  -0.19    -0.05  -0.01  -0.02
  15   1    -0.01  -0.10  -0.01     0.05  -0.19  -0.07     0.16   0.09  -0.04
  16   1    -0.23  -0.08  -0.44    -0.03  -0.01   0.00    -0.04  -0.03  -0.00
  17   1     0.08  -0.49  -0.12    -0.00  -0.01   0.00     0.22   0.08  -0.14
  18   1    -0.02   0.12  -0.03     0.03  -0.12   0.05    -0.24  -0.09  -0.12
  19   1     0.05   0.01  -0.11    -0.05  -0.00   0.12     0.07   0.04   0.01
  20   1    -0.06   0.10   0.18     0.11  -0.18  -0.29     0.12  -0.15   0.05
  21   1     0.13   0.17   0.02    -0.20  -0.30  -0.02    -0.11   0.23  -0.09
  22   1    -0.00   0.06   0.19    -0.11   0.24   0.39     0.10   0.06   0.21
  23   1     0.13   0.14   0.02     0.28   0.39   0.01    -0.20  -0.08  -0.15
  24   1    -0.10  -0.07  -0.02    -0.07   0.00  -0.03     0.20   0.04   0.14
  25   1     0.07  -0.12  -0.10     0.03  -0.06  -0.05    -0.11  -0.02  -0.22
  26   1     0.10   0.04  -0.02     0.05   0.01  -0.05     0.07   0.02  -0.09
                     37                     38                     39
                        a                      a                      a 
 Frequencies --  1048.6177              1154.8850              1084.3400
 Red. masses --    99.0000                99.0000                99.0000
 Frc consts  --    99.0000                99.0000                99.0000
 IR Inten    --    99.0000                99.0000                99.0000
 Raman Activ --     0.0000                 0.0000                 0.0000
 Depolar     --     0.0000                 0.0000                 0.0000
 Atom AN      X      Y      Z        X      Y      Z        X      Y      Z
   1   6    -0.14  -0.01   0.14    -0.11  -0.11  -0.06    -0.05   0.19   0.31
   2   6     0.09  -0.02  -0.14     0.18   0.22   0.16     0.13  -0.18  -0.38
   3   6     0.24  -0.09  -0.30    -0.13  -0.27  -0.30     0.10   0.07   0.01
   4   6    -0.20   0.11   0.26    -0.06   0.09   0.30     0.08   0.09  -0.01
   5   6    -0.10  -0.04  -0.05     0.11   0.02  -0.27    -0.10  -0.07  -0.20
   6   6     0.24  -0.02   0.09    -0.12  -0.08   0.21    -0.01   0.04   0.19
   7   6     0.00   0.04   0.20     0.12   0.06  -0.10     0.25  -0.05   0.14
   8   6    -0.02  -0.02  -0.16    -0.07  -0.02   0.06    -0.20  -0.01  -0.15
   9   1    -0.02   0.03   0.03     0.11   0.04  -0.08    -0.19  -0.02   0.16
  10   1    -0.07   0.04   0.10    -0.09   0.06   0.17     0.06  -0.06  -0.14
  11   1     0.01   0.01   0.01     0.13   0.02  -0.05    -0.20  -0.01   0.14
  12   1     0.05   0.00  -0.04     0.11   0.07  -0.01    -0.02  -0.06  -0.06
  13   1     0.02  -0.03  -0.04     0.12   0.08  -0.00    -0.04  -0.07  -0.06
  14   1     0.13  -0.01  -0.14    -0.02  -0.07  -0.05    -0.10  -0.02   0.06
  15   1     0.08  -0.01  -0.09     0.01  -0.08  -0.10    -0.10  -0.01   0.07
  16   1     0.02   0.05   0.06    -0.17  -0.03   0.08    -0.05   0.00   0.04
  17   1    -0.10  -0.01   0.09    -0.07   0.05   0.11    -0.11  -0.01   0.08
  18   1    -0.35  -0.12  -0.18     0.09   0.15  -0.06     0.11   0.11   0.00
  19   1     0.10   0.04   0.07    -0.08  -0.02   0.04    -0.17  -0.06  -0.04
  20   1     0.13  -0.04   0.22    -0.05  -0.03  -0.16    -0.07   0.05  -0.11
  21   1    -0.18   0.06  -0.13     0.20   0.02   0.17     0.15  -0.00   0.14
  22   1     0.08  -0.09   0.01    -0.06   0.13   0.04     0.04   0.03   0.08
  23   1    -0.06   0.20  -0.04    -0.02  -0.11  -0.01     0.10  -0.12   0.09
  24   1    -0.16   0.01  -0.11     0.09   0.02   0.06    -0.00   0.00  -0.02
  25   1    -0.00   0.02   0.06    -0.05   0.00  -0.10    -0.07  -0.00  -0.10
  26   1    -0.02   0.00   0.06     0.03   0.01  -0.03    -0.04  -0.00  -0.08
                     40                     41                     42
                        a                      a                      a 
 Frequencies --  1113.3671              1095.3946              1286.4796
 Red. masses --    99.0000                99.0000                99.0000
 Frc consts  --    99.0000                99.0000                99.0000
 IR Inten    --    99.0000                99.0000                99.0000
 Raman Activ --     0.0000                 0.0000                 0.0000
 Depolar     --     0.0000                 0.0000                 0.0000
 Atom AN      X      Y      Z        X      Y      Z        X      Y      Z
   1   6    -0.18   0.03   0.20     0.07  -0.10  -0.24    -0.05   0.05  -0.05
   2   6     0.40   0.16  -0.13    -0.14   0.06   0.28    -0.04   0.12  -0.08
   3   6    -0.39  -0.17   0.11    -0.06   0.04   0.01     0.10  -0.06   0.05
   4   6     0.00  -0.14  -0.14     0.15   0.02   0.00     0.06  -0.11   0.04
   5   6     0.05   0.07   0.14    -0.10  -0.00  -0.01     0.02   0.03   0.01
   6   6    -0.03   0.05  -0.15    -0.02   0.15   0.00    -0.04  -0.02   0.04
   7   6     0.05  -0.03   0.11     0.34  -0.14   0.36     0.00  -0.00  -0.02
   8   6    -0.03  -0.03  -0.09    -0.26  -0.05  -0.32     0.03   0.01  -0.03
   9   1    -0.00   0.04   0.04     0.12  -0.01  -0.12     0.05  -0.02  -0.06
  10   1    -0.07   0.05   0.13    -0.01   0.01   0.04    -0.01   0.01   0.02
  11   1     0.01   0.03   0.05     0.10  -0.00  -0.07    -0.03   0.01   0.06
  12   1     0.28   0.09  -0.13    -0.08   0.01   0.06     0.35   0.12  -0.10
  13   1     0.29   0.09  -0.13    -0.01   0.06   0.07    -0.41  -0.17   0.17
  14   1    -0.15  -0.06   0.05    -0.00   0.01   0.05    -0.49  -0.15   0.18
  15   1    -0.14  -0.06   0.05     0.08   0.00  -0.06     0.36   0.14  -0.15
  16   1     0.08  -0.01  -0.10    -0.01  -0.01  -0.04     0.05  -0.02  -0.10
  17   1     0.14   0.02  -0.12     0.14   0.11  -0.05    -0.09   0.01   0.09
  18   1     0.00  -0.06   0.05    -0.05  -0.03  -0.01    -0.07  -0.05  -0.02
  19   1     0.07   0.03  -0.03    -0.13  -0.04  -0.09     0.05   0.02   0.03
  20   1     0.01   0.01   0.03    -0.04   0.07   0.00     0.01  -0.02   0.02
  21   1    -0.13   0.04  -0.11    -0.07   0.08  -0.05    -0.03   0.08  -0.02
  22   1     0.06  -0.06   0.02     0.18  -0.12   0.13    -0.09   0.07  -0.06
  23   1     0.04   0.02   0.03     0.16  -0.06   0.13     0.08  -0.08   0.06
  24   1    -0.07   0.01  -0.05    -0.13   0.00  -0.12    -0.03  -0.01  -0.02
  25   1    -0.02   0.01   0.00    -0.09   0.01  -0.08     0.02   0.00   0.03
  26   1    -0.00  -0.00   0.02    -0.06  -0.01  -0.05    -0.01  -0.00   0.01
                     43                     44                     45
                        a                      a                      a 
 Frequencies --  1258.6316              1148.0431              1277.5224
 Red. masses --    99.0000                99.0000                99.0000
 Frc consts  --    99.0000                99.0000                99.0000
 IR Inten    --    99.0000                99.0000                99.0000
 Raman Activ --     0.0000                 0.0000                 0.0000
 Depolar     --     0.0000                 0.0000                 0.0000
 Atom AN      X      Y      Z        X      Y      Z        X      Y      Z
   1   6    -0.09   0.05  -0.10     0.00   0.03   0.04     0.00   0.17  -0.01
   2   6     0.10   0.01   0.07    -0.03  -0.09  -0.08    -0.14  -0.14   0.01
   3   6     0.13  -0.09  -0.03     0.15   0.03  -0.11    -0.07  -0.18   0.21
   4   6    -0.01   0.16  -0.12    -0.32  -0.21   0.16    -0.15   0.12   0.05
   5   6    -0.03  -0.05   0.16     0.35   0.28   0.22     0.07  -0.03  -0.08
   6   6     0.04  -0.03  -0.16    -0.25   0.06  -0.27    -0.06   0.01  -0.00
   7   6     0.09   0.15  -0.08     0.13  -0.02   0.07    -0.03   0.04   0.02
   8   6    -0.12  -0.10   0.10    -0.06  -0.07  -0.07     0.02  -0.02  -0.03
   9   1     0.09  -0.03  -0.09    -0.03  -0.01   0.02     0.02  -0.08  -0.04
  10   1    -0.01  -0.01   0.08     0.02  -0.02  -0.03     0.08  -0.07  -0.08
  11   1    -0.01   0.01   0.09    -0.04  -0.00   0.03    -0.09   0.01   0.10
  12   1     0.10   0.02  -0.09    -0.06  -0.04  -0.01     0.40   0.08  -0.24
  13   1    -0.24  -0.02   0.17    -0.04  -0.02  -0.00    -0.06  -0.01   0.03
  14   1    -0.06  -0.04  -0.04     0.10   0.02  -0.07     0.35   0.05  -0.29
  15   1    -0.23  -0.02   0.15     0.10  -0.00  -0.06     0.19   0.14  -0.03
  16   1    -0.04   0.04   0.15    -0.24  -0.10   0.12    -0.02   0.04   0.10
  17   1    -0.13  -0.08   0.04    -0.10  -0.02   0.06     0.35   0.04  -0.23
  18   1     0.19   0.03   0.14     0.23   0.06   0.15    -0.00   0.06  -0.05
  19   1    -0.28  -0.12  -0.14     0.21   0.11   0.04    -0.13  -0.05  -0.03
  20   1     0.21  -0.18   0.18    -0.07   0.02  -0.09     0.02  -0.04   0.02
  21   1    -0.12   0.00  -0.12    -0.09   0.09  -0.11     0.11  -0.06   0.09
  22   1     0.20  -0.08   0.20     0.06  -0.02   0.05     0.00  -0.00  -0.01
  23   1    -0.17   0.06  -0.12     0.08  -0.09   0.07     0.05  -0.03   0.05
  24   1     0.10   0.06   0.06    -0.03   0.02  -0.04    -0.02   0.01  -0.02
  25   1    -0.10   0.01  -0.15    -0.06   0.02  -0.05    -0.00   0.01   0.02
  26   1     0.09   0.03  -0.00     0.03   0.01   0.03     0.01   0.00   0.03
                     46                     47                     48
                        a                      a                      a 
 Frequencies --  1282.0486              1310.8442              1291.5691
 Red. masses --    99.0000                99.0000                99.0000
 Frc consts  --    99.0000                99.0000                99.0000
 IR Inten    --    99.0000                99.0000                99.0000
 Raman Activ --     0.0000                 0.0000                 0.0000
 Depolar     --     0.0000                 0.0000                 0.0000
 Atom AN      X      Y      Z        X      Y      Z        X      Y      Z
   1   6    -0.04  -0.00  -0.05    -0.02  -0.03  -0.03    -0.05   0.02  -0.06
   2   6     0.09  -0.01   0.03     0.09   0.03  -0.02     0.09   0.03   0.00
   3   6     0.12  -0.03   0.02     0.07   0.03   0.00     0.13  -0.07   0.06
   4   6     0.01   0.05  -0.12    -0.02  -0.06  -0.05     0.04  -0.05  -0.11
   5   6    -0.03   0.06   0.03     0.05  -0.07  -0.05    -0.01   0.14  -0.04
   6   6    -0.10  -0.08   0.17    -0.16   0.22  -0.04     0.10  -0.01   0.03
   7   6     0.09  -0.01  -0.05    -0.20   0.20  -0.11     0.02  -0.15   0.09
   8   6     0.08   0.05  -0.08     0.00  -0.13  -0.05    -0.04   0.06   0.05
   9   1     0.03  -0.00  -0.03     0.00   0.01  -0.01     0.04  -0.01  -0.04
  10   1    -0.01  -0.00   0.06    -0.02   0.02   0.05    -0.01  -0.00   0.06
  11   1     0.01   0.00   0.03     0.01   0.00   0.01     0.00   0.01   0.05
  12   1    -0.07  -0.03   0.01    -0.10  -0.02   0.05     0.04   0.01  -0.03
  13   1    -0.09   0.00   0.07    -0.10  -0.02   0.06    -0.21  -0.05   0.13
  14   1     0.04  -0.00  -0.05    -0.08  -0.02   0.04    -0.07  -0.05  -0.02
  15   1    -0.30  -0.04   0.19    -0.14  -0.03   0.08    -0.20   0.01   0.16
  16   1    -0.21  -0.05   0.15    -0.02  -0.02   0.02    -0.35  -0.12   0.19
  17   1     0.13  -0.04  -0.12     0.08   0.04  -0.06     0.18   0.03  -0.13
  18   1    -0.14  -0.08  -0.05    -0.22  -0.05  -0.14    -0.18  -0.07  -0.09
  19   1     0.00   0.02  -0.02     0.21   0.06   0.17     0.20   0.11   0.01
  20   1     0.14  -0.20   0.03     0.15  -0.12   0.10    -0.28   0.29  -0.21
  21   1    -0.17   0.27  -0.12     0.26  -0.20   0.24     0.08  -0.10   0.07
  22   1    -0.32   0.30  -0.20     0.28  -0.22   0.20     0.05  -0.10   0.00
  23   1     0.24  -0.24   0.17     0.25  -0.20   0.20    -0.24   0.23  -0.18
  24   1    -0.08  -0.02  -0.06     0.01   0.04  -0.02     0.03  -0.03   0.04
  25   1     0.06   0.00   0.08    -0.03   0.03   0.03     0.01  -0.02  -0.03
  26   1    -0.03  -0.01  -0.00     0.11   0.03   0.13    -0.06  -0.02  -0.06
                     49                     50                     51
                        a                      a                      a 
 Frequencies --  1363.3474              1350.0868              1374.3069
 Red. masses --    99.0000                99.0000                99.0000
 Frc consts  --    99.0000                99.0000                99.0000
 IR Inten    --    99.0000                99.0000                99.0000
 Raman Activ --     0.0000                 0.0000                 0.0000
 Depolar     --     0.0000                 0.0000                 0.0000
 Atom AN      X      Y      Z        X      Y      Z        X      Y      Z
   1   6     0.01  -0.00   0.00    -0.06  -0.08  -0.06     0.01   0.01   0.01
   2   6     0.00  -0.01   0.00     0.32   0.08  -0.17    -0.07  -0.01   0.05
   3   6     0.01   0.04  -0.01    -0.03   0.04   0.08     0.06   0.01  -0.05
   4   6    -0.10   0.00  -0.09    -0.29  -0.06   0.17     0.01   0.00  -0.01
   5   6     0.48   0.14   0.21     0.05  -0.03  -0.07     0.02  -0.09   0.02
   6   6    -0.11  -0.06  -0.00    -0.02  -0.01  -0.02    -0.29   0.24  -0.24
   7   6     0.00  -0.00   0.03     0.06  -0.05   0.05     0.27  -0.19   0.21
   8   6     0.01  -0.00  -0.01     0.00   0.03   0.01    -0.02   0.08   0.01
   9   1    -0.01   0.00   0.01    -0.02   0.06   0.01     0.01  -0.01  -0.01
  10   1    -0.00   0.00   0.00    -0.07   0.05   0.14     0.01  -0.01  -0.02
  11   1    -0.00  -0.00  -0.00     0.02  -0.01   0.06    -0.00   0.00  -0.02
  12   1    -0.03  -0.01   0.01    -0.34  -0.09   0.19     0.06   0.02  -0.04
  13   1     0.03   0.01  -0.01    -0.35  -0.08   0.19     0.07   0.01  -0.04
  14   1    -0.01   0.01   0.03     0.04   0.02  -0.05    -0.06  -0.02   0.06
  15   1    -0.04  -0.01   0.02     0.05  -0.01  -0.02    -0.07  -0.00   0.04
  16   1     0.13   0.05  -0.05     0.32   0.10  -0.17     0.02   0.00  -0.02
  17   1    -0.15  -0.10   0.04     0.31   0.09  -0.18    -0.03  -0.03   0.01
  18   1    -0.44  -0.15  -0.24     0.12   0.10   0.02    -0.05  -0.00  -0.03
  19   1    -0.45  -0.18  -0.20    -0.09  -0.04  -0.03     0.11   0.02   0.10
  20   1    -0.11   0.04  -0.14     0.00  -0.01   0.01     0.26  -0.23   0.24
  21   1     0.10  -0.06   0.08     0.03  -0.01   0.02     0.26  -0.19   0.20
  22   1    -0.03   0.02  -0.01    -0.08   0.06  -0.06    -0.22   0.18  -0.19
  23   1    -0.00   0.03  -0.00    -0.07   0.06  -0.05    -0.24   0.17  -0.16
  24   1    -0.01  -0.00  -0.01    -0.01  -0.01   0.00    -0.04  -0.04   0.00
  25   1    -0.01   0.01   0.00     0.00  -0.00  -0.01     0.02  -0.02  -0.05
  26   1    -0.01  -0.00   0.01    -0.03  -0.01  -0.03    -0.06  -0.02  -0.07
                     52                     53                     54
                        a                      a                      a 
 Frequencies --  1378.0873              1416.4717              1416.7583
 Red. masses --    99.0000                99.0000                99.0000
 Frc consts  --    99.0000                99.0000                99.0000
 IR Inten    --    99.0000                99.0000                99.0000
 Raman Activ --     0.0000                 0.0000                 0.0000
 Depolar     --     0.0000                 0.0000                 0.0000
 Atom AN      X      Y      Z        X      Y      Z        X      Y      Z
   1   6     0.05   0.03  -0.00     0.27  -0.06  -0.33     0.04  -0.01  -0.04
   2   6    -0.24  -0.04   0.15    -0.07  -0.02   0.03    -0.01  -0.00   0.01
   3   6     0.36   0.09  -0.19    -0.01  -0.01  -0.01     0.00  -0.00  -0.01
   4   6    -0.31  -0.10   0.16     0.03   0.01  -0.01    -0.00   0.00   0.01
   5   6     0.02   0.01  -0.07    -0.01  -0.00   0.00    -0.00   0.01   0.01
   6   6     0.06  -0.04   0.05    -0.00   0.01  -0.00    -0.01  -0.01  -0.01
   7   6    -0.04   0.01  -0.02    -0.00   0.00  -0.00     0.05  -0.05   0.03
   8   6     0.01  -0.00   0.01     0.04  -0.00   0.04    -0.30   0.03  -0.31
   9   1    -0.00  -0.04  -0.00    -0.43   0.11   0.25    -0.06   0.01   0.03
  10   1     0.03  -0.01  -0.04    -0.15   0.22   0.43    -0.02   0.03   0.06
  11   1    -0.02  -0.00  -0.03    -0.29  -0.10   0.40    -0.04  -0.01   0.05
  12   1     0.19   0.05  -0.12     0.09   0.02   0.01     0.01   0.00  -0.00
  13   1     0.20   0.03  -0.11     0.06   0.06  -0.02     0.01   0.01  -0.00
  14   1    -0.31  -0.08   0.16     0.01  -0.00  -0.01     0.00  -0.00   0.00
  15   1    -0.31  -0.08   0.16     0.01  -0.00  -0.01     0.00   0.00  -0.00
  16   1     0.25   0.07  -0.11    -0.03  -0.01   0.01    -0.00  -0.00  -0.01
  17   1     0.27   0.12  -0.16    -0.03  -0.01   0.02     0.00  -0.01  -0.00
  18   1     0.11   0.05   0.03    -0.00  -0.01   0.00     0.01   0.01   0.00
  19   1    -0.05  -0.01  -0.01     0.01   0.00   0.01    -0.00  -0.00  -0.02
  20   1    -0.05   0.04  -0.08     0.01  -0.00   0.00    -0.00  -0.00  -0.01
  21   1    -0.04   0.00  -0.02     0.00  -0.00   0.00    -0.01  -0.01  -0.01
  22   1     0.02  -0.01   0.03     0.01  -0.01  -0.00    -0.06   0.07   0.01
  23   1     0.03   0.01   0.01     0.00  -0.01   0.00    -0.02   0.08  -0.03
  24   1    -0.00   0.00  -0.00    -0.06   0.01  -0.03     0.45  -0.09   0.22
  25   1    -0.00   0.00   0.00    -0.03   0.02  -0.06     0.24  -0.15   0.42
  26   1    -0.00  -0.00  -0.00    -0.04  -0.02  -0.05     0.29   0.19   0.37
                     55                     56                     57
                        a                      a                      a 
 Frequencies --  2959.8144              2957.7587              2955.5749
 Red. masses --    99.0000                99.0000                99.0000
 Frc consts  --    99.0000                99.0000                99.0000
 IR Inten    --    99.0000                99.0000                99.0000
 Raman Activ --     0.0000                 0.0000                 0.0000
 Depolar     --     0.0000                 0.0000                 0.0000
 Atom AN      X      Y      Z        X      Y      Z        X      Y      Z
   1   6    -0.01   0.01  -0.01    -0.00   0.00  -0.00     0.00  -0.00   0.00
   2   6     0.10  -0.14   0.11     0.05  -0.08   0.05    -0.02   0.05  -0.02
   3   6    -0.03   0.07  -0.03    -0.04   0.09  -0.03     0.05  -0.10   0.05
   4   6    -0.08   0.05  -0.10     0.03  -0.02   0.04    -0.11   0.08  -0.14
   5   6    -0.04   0.03   0.05     0.03  -0.05   0.00    -0.03  -0.01   0.06
   6   6    -0.06  -0.04   0.03     0.16   0.10  -0.08     0.09   0.05  -0.05
   7   6     0.03  -0.00  -0.05    -0.06  -0.01   0.07    -0.03  -0.01   0.03
   8   6    -0.00   0.00   0.00     0.00  -0.01  -0.00     0.00  -0.00  -0.00
   9   1     0.02  -0.01   0.05     0.01  -0.00   0.02    -0.01   0.00  -0.01
  10   1     0.00   0.00  -0.00    -0.00   0.00  -0.00     0.00  -0.00   0.00
  11   1     0.01  -0.04  -0.00     0.01  -0.02  -0.00    -0.00   0.01   0.00
  12   1    -0.11   0.44   0.02    -0.07   0.27   0.01     0.04  -0.17  -0.00
  13   1    -0.24   0.09  -0.42    -0.11   0.03  -0.19     0.05  -0.01   0.08
  14   1     0.06  -0.25  -0.00     0.08  -0.33  -0.00    -0.08   0.32   0.01
  15   1     0.06  -0.01   0.09     0.07  -0.02   0.13    -0.12   0.04  -0.21
  16   1     0.02  -0.09  -0.01    -0.02   0.06   0.00     0.06  -0.23  -0.01
  17   1     0.25  -0.06   0.39    -0.09   0.02  -0.15     0.33  -0.07   0.53
  18   1     0.12  -0.05  -0.20     0.01  -0.01  -0.01     0.14  -0.07  -0.22
  19   1     0.02  -0.07   0.01    -0.07   0.21  -0.01    -0.05   0.13   0.00
  20   1     0.18   0.17  -0.04    -0.48  -0.44   0.09    -0.26  -0.24   0.05
  21   1     0.03  -0.03  -0.07    -0.09   0.07   0.19    -0.07   0.05   0.14
  22   1    -0.05  -0.05   0.01     0.12   0.12  -0.03     0.08   0.08  -0.02
  23   1    -0.07   0.05   0.16     0.10  -0.07  -0.21     0.04  -0.03  -0.08
  24   1     0.01  -0.00  -0.02    -0.01   0.01   0.02    -0.00   0.00   0.01
  25   1     0.00   0.00   0.00    -0.00  -0.00  -0.00    -0.00  -0.00  -0.00
  26   1     0.00  -0.01   0.00    -0.00   0.01  -0.00    -0.00   0.00  -0.00
                     58                     59                     60
                        a                      a                      a 
 Frequencies --  2955.3615              2968.5763              3028.9496
 Red. masses --    99.0000                99.0000                99.0000
 Frc consts  --    99.0000                99.0000                99.0000
 IR Inten    --    99.0000                99.0000                99.0000
 Raman Activ --     0.0000                 0.0000                 0.0000
 Depolar     --     0.0000                 0.0000                 0.0000
 Atom AN      X      Y      Z        X      Y      Z        X      Y      Z
   1   6     0.00  -0.00   0.00    -0.00   0.01  -0.00     0.14  -0.19   0.16
   2   6    -0.01   0.01  -0.01     0.04  -0.05   0.04     0.02  -0.03   0.02
   3   6     0.00  -0.02  -0.00     0.02  -0.06   0.01     0.01  -0.01   0.01
   4   6     0.04  -0.06   0.05    -0.01   0.02  -0.01     0.00  -0.01   0.00
   5   6    -0.14   0.19   0.13     0.00   0.07  -0.06    -0.00  -0.00   0.00
   6   6     0.05   0.02  -0.04    -0.04  -0.04  -0.01    -0.00  -0.00   0.01
   7   6     0.00  -0.01  -0.01    -0.12   0.01   0.18    -0.01  -0.00   0.01
   8   6    -0.00  -0.00   0.00     0.02   0.00  -0.02    -0.06  -0.01   0.05
   9   1    -0.00   0.00  -0.00     0.01  -0.00   0.02    -0.34   0.12  -0.59
  10   1     0.00   0.00   0.00    -0.00   0.00  -0.00    -0.00  -0.04   0.02
  11   1    -0.00   0.00   0.00     0.01  -0.03  -0.00    -0.15   0.58   0.02
  12   1     0.01  -0.03  -0.00    -0.04   0.14   0.01    -0.02   0.07   0.00
  13   1     0.02  -0.01   0.03    -0.09   0.03  -0.16    -0.05   0.02  -0.08
  14   1    -0.01   0.05  -0.00    -0.06   0.23  -0.00    -0.00   0.02   0.00
  15   1     0.01  -0.01   0.02    -0.02   0.00  -0.04    -0.03   0.01  -0.04
  16   1    -0.06   0.21  -0.00     0.02  -0.06   0.00    -0.01   0.02  -0.00
  17   1    -0.10   0.02  -0.17     0.03  -0.00   0.04    -0.01   0.00  -0.01
  18   1     0.31  -0.12  -0.52    -0.13   0.07   0.20     0.00  -0.00  -0.01
  19   1     0.19  -0.59   0.06     0.12  -0.34   0.01    -0.00   0.01  -0.00
  20   1    -0.09  -0.09   0.01     0.16   0.14  -0.04     0.00   0.00  -0.00
  21   1    -0.09   0.05   0.16    -0.05   0.02   0.08     0.01  -0.01  -0.02
  22   1     0.01   0.01  -0.00     0.15   0.15  -0.03     0.02   0.02  -0.01
  23   1    -0.02   0.01   0.04     0.30  -0.19  -0.62     0.01  -0.01  -0.02
  24   1     0.00  -0.00  -0.00    -0.03   0.02   0.07     0.08  -0.06  -0.17
  25   1     0.00   0.00  -0.00    -0.04  -0.04   0.01     0.11   0.11  -0.03
  26   1    -0.00   0.00  -0.00    -0.00   0.01  -0.00     0.00  -0.03   0.01
                     61                     62                     63
                        a                      a                      a 
 Frequencies --  2971.5362              2996.1911              3028.0562
 Red. masses --    99.0000                99.0000                99.0000
 Frc consts  --    99.0000                99.0000                99.0000
 IR Inten    --    99.0000                99.0000                99.0000
 Raman Activ --     0.0000                 0.0000                 0.0000
 Depolar     --     0.0000                 0.0000                 0.0000
 Atom AN      X      Y      Z        X      Y      Z        X      Y      Z
   1   6    -0.01   0.02  -0.01     0.01   0.02   0.01    -0.05   0.04  -0.05
   2   6     0.07  -0.09   0.08    -0.01  -0.03  -0.03    -0.01   0.01  -0.01
   3   6     0.05  -0.17   0.02    -0.02  -0.04  -0.07    -0.00   0.00  -0.00
   4   6     0.03   0.01   0.05     0.01  -0.12  -0.04     0.00  -0.00   0.00
   5   6     0.02   0.01  -0.05     0.03  -0.05  -0.03    -0.00   0.00   0.00
   6   6     0.05   0.05  -0.01     0.02  -0.06  -0.10    -0.01  -0.00   0.01
   7   6     0.06  -0.01  -0.09    -0.04  -0.08  -0.03    -0.04  -0.02   0.03
   8   6    -0.01  -0.00   0.01    -0.00   0.03   0.01    -0.20  -0.06   0.19
   9   1     0.02  -0.01   0.04    -0.02   0.01  -0.04     0.10  -0.04   0.18
  10   1    -0.01  -0.00  -0.00    -0.04  -0.02  -0.00     0.03   0.03  -0.00
  11   1     0.02  -0.06  -0.00     0.01  -0.04   0.00     0.03  -0.14  -0.01
  12   1    -0.06   0.25   0.01    -0.03   0.12  -0.01     0.00  -0.01  -0.00
  13   1    -0.18   0.07  -0.30     0.06  -0.03   0.10     0.01  -0.00   0.02
  14   1    -0.16   0.60  -0.00    -0.06   0.21  -0.01     0.00  -0.00  -0.00
  15   1    -0.03  -0.01  -0.06     0.15  -0.07   0.26     0.00  -0.00   0.00
  16   1     0.04  -0.11   0.01    -0.16   0.49  -0.03    -0.00   0.01  -0.00
  17   1    -0.13   0.04  -0.20     0.11  -0.05   0.17    -0.00   0.00  -0.00
  18   1    -0.11   0.05   0.18    -0.07   0.03   0.11     0.01  -0.00  -0.01
  19   1     0.04  -0.09  -0.00    -0.04   0.12  -0.01    -0.00   0.00   0.00
  20   1    -0.20  -0.18   0.04     0.14   0.11  -0.04     0.01   0.02  -0.00
  21   1     0.03  -0.00  -0.03    -0.23   0.10   0.39     0.02  -0.01  -0.04
  22   1    -0.05  -0.05   0.00     0.25   0.23  -0.09     0.08   0.08  -0.03
  23   1    -0.15   0.10   0.32    -0.10   0.05   0.18     0.04  -0.02  -0.07
  24   1     0.01  -0.01  -0.03     0.03  -0.01  -0.05     0.26  -0.19  -0.57
  25   1     0.02   0.02  -0.01    -0.06  -0.05   0.02     0.45   0.42  -0.13
  26   1     0.00  -0.01   0.00     0.03  -0.06   0.01    -0.02  -0.03   0.03
                     64                     65                     66
                        a                      a                      a 
 Frequencies --  2988.5337              2977.4312              2992.5252
 Red. masses --    99.0000                99.0000                99.0000
 Frc consts  --    99.0000                99.0000                99.0000
 IR Inten    --    99.0000                99.0000                99.0000
 Raman Activ --     0.0000                 0.0000                 0.0000
 Depolar     --     0.0000                 0.0000                 0.0000
 Atom AN      X      Y      Z        X      Y      Z        X      Y      Z
   1   6    -0.01  -0.01  -0.01     0.01   0.02   0.00    -0.01   0.00  -0.01
   2   6     0.01   0.03   0.04    -0.03  -0.13  -0.13     0.02  -0.02   0.02
   3   6     0.03   0.04   0.07     0.03  -0.00   0.05     0.06  -0.02   0.11
   4   6    -0.00   0.10   0.05    -0.01   0.05   0.00     0.03  -0.10   0.01
   5   6     0.00   0.00  -0.00    -0.00   0.02  -0.01    -0.01  -0.02   0.03
   6   6     0.01  -0.07  -0.09     0.01  -0.00  -0.01    -0.06   0.03   0.11
   7   6    -0.05  -0.09  -0.03     0.00  -0.01  -0.01    -0.09  -0.09   0.02
   8   6     0.00   0.03   0.00    -0.00   0.00   0.00     0.02   0.01  -0.02
   9   1     0.02  -0.01   0.03    -0.02   0.01  -0.03     0.03  -0.01   0.05
  10   1     0.03   0.02   0.00    -0.04  -0.03  -0.00     0.01   0.01  -0.00
  11   1    -0.01   0.03  -0.00     0.02  -0.05   0.00     0.00  -0.01  -0.00
  12   1     0.05  -0.17   0.01    -0.18   0.64  -0.02    -0.01   0.05   0.00
  13   1    -0.10   0.05  -0.16     0.31  -0.15   0.51    -0.04   0.02  -0.07
  14   1     0.06  -0.20   0.01     0.02  -0.07   0.01     0.02  -0.03   0.01
  15   1    -0.16   0.08  -0.27    -0.13   0.06  -0.22    -0.24   0.10  -0.41
  16   1     0.14  -0.40   0.03     0.06  -0.19   0.01    -0.13   0.39  -0.02
  17   1    -0.12   0.05  -0.19    -0.02   0.01  -0.02    -0.00  -0.01  -0.01
  18   1    -0.00   0.00   0.00    -0.03   0.02   0.04     0.05  -0.03  -0.08
  19   1    -0.00   0.00  -0.00     0.03  -0.09   0.00    -0.03   0.08  -0.00
  20   1     0.17   0.14  -0.05     0.00   0.00  -0.00    -0.02  -0.01   0.02
  21   1    -0.22   0.10   0.37    -0.03   0.01   0.04     0.24  -0.11  -0.42
  22   1     0.30   0.28  -0.11     0.02   0.02  -0.01     0.35   0.33  -0.12
  23   1    -0.12   0.05   0.22    -0.03   0.02   0.06    -0.03  -0.00   0.04
  24   1     0.02  -0.01  -0.04     0.00  -0.00  -0.01    -0.02   0.02   0.05
  25   1    -0.05  -0.04   0.02     0.00   0.00   0.00    -0.06  -0.06   0.02
  26   1     0.02  -0.05   0.01     0.00  -0.01   0.00     0.01  -0.02  -0.00
                     67                     68                     69
                        a                      a                      a 
 Frequencies --  2985.9473              2975.8397              3030.7420
 Red. masses --    99.0000                99.0000                99.0000
 Frc consts  --    99.0000                99.0000                99.0000
 IR Inten    --    99.0000                99.0000                99.0000
 Raman Activ --     0.0000                 0.0000                 0.0000
 Depolar     --     0.0000                 0.0000                 0.0000
 Atom AN      X      Y      Z        X      Y      Z        X      Y      Z
   1   6     0.01  -0.00   0.01    -0.00   0.01  -0.00     0.06   0.08   0.05
   2   6    -0.02   0.02  -0.04     0.02  -0.05   0.00     0.00   0.01   0.01
   3   6    -0.07   0.02  -0.13     0.01  -0.07  -0.01     0.00   0.00   0.00
   4   6    -0.03   0.10  -0.00     0.04   0.01   0.07     0.00  -0.00   0.00
   5   6    -0.02   0.03   0.01    -0.02  -0.10   0.12     0.00  -0.00  -0.00
   6   6    -0.04   0.03   0.08    -0.05  -0.05   0.01    -0.00  -0.01  -0.01
   7   6    -0.09  -0.09   0.01    -0.02   0.02   0.05    -0.01  -0.03  -0.01
   8   6     0.01   0.01  -0.01     0.01   0.00  -0.01     0.01  -0.25  -0.05
   9   1    -0.03   0.01  -0.05     0.00   0.00   0.00    -0.09   0.05  -0.17
  10   1    -0.01  -0.01   0.00    -0.01  -0.00  -0.00    -0.20  -0.14  -0.01
  11   1    -0.00   0.01   0.00     0.01  -0.04  -0.00     0.07  -0.18   0.01
  12   1     0.00  -0.03  -0.00    -0.05   0.17  -0.00     0.01  -0.03   0.00
  13   1     0.07  -0.03   0.12    -0.01  -0.00  -0.02    -0.02   0.01  -0.02
  14   1    -0.03   0.06  -0.02    -0.08   0.29  -0.01     0.00  -0.01   0.00
  15   1     0.28  -0.12   0.48     0.03  -0.02   0.05    -0.01   0.00  -0.02
  16   1     0.12  -0.36   0.02     0.03  -0.09   0.01    -0.00   0.01  -0.00
  17   1    -0.01   0.02  -0.02    -0.17   0.04  -0.26    -0.00   0.00  -0.00
  18   1     0.03  -0.01  -0.05     0.27  -0.14  -0.43    -0.00   0.00   0.00
  19   1     0.03  -0.10   0.01    -0.18   0.51  -0.02    -0.00   0.01  -0.00
  20   1    -0.06  -0.04   0.02     0.21   0.19  -0.04     0.04   0.03  -0.01
  21   1     0.19  -0.09  -0.32    -0.02  -0.00   0.02    -0.03   0.01   0.04
  22   1     0.36   0.33  -0.12    -0.02  -0.02   0.01     0.08   0.07  -0.03
  23   1    -0.05   0.01   0.09     0.10  -0.06  -0.20    -0.03   0.02   0.06
  24   1    -0.01   0.01   0.02    -0.01   0.01   0.02    -0.19   0.08   0.38
  25   1    -0.04  -0.04   0.01    -0.02  -0.02   0.01     0.38   0.30  -0.13
  26   1     0.01  -0.02  -0.00    -0.00   0.00  -0.00    -0.23   0.52  -0.06
                     70                     71                     72
                        a                      a                      a 
 Frequencies --  3031.3399              3036.5026              3037.0760
 Red. masses --    99.0000                99.0000                99.0000
 Frc consts  --    99.0000                99.0000                99.0000
 IR Inten    --    99.0000                99.0000                99.0000
 Raman Activ --     0.0000                 0.0000                 0.0000
 Depolar     --     0.0000                 0.0000                 0.0000
 Atom AN      X      Y      Z        X      Y      Z        X      Y      Z
   1   6     0.14   0.20   0.09    -0.05  -0.00   0.03     0.12   0.01  -0.08
   2   6     0.01   0.02   0.02    -0.00   0.00   0.00     0.00  -0.00  -0.00
   3   6     0.00   0.01   0.01     0.00   0.00   0.00    -0.00  -0.00  -0.00
   4   6     0.00   0.01   0.00     0.00   0.00   0.00     0.00   0.00   0.00
   5   6    -0.00   0.00   0.00     0.00  -0.00   0.00    -0.00  -0.00   0.00
   6   6    -0.00   0.01   0.01     0.00  -0.00  -0.00    -0.00  -0.00  -0.00
   7   6     0.00   0.01   0.01    -0.00   0.00  -0.00    -0.00  -0.00  -0.00
   8   6    -0.01   0.10   0.03    -0.10   0.06  -0.09    -0.04   0.02  -0.04
   9   1    -0.18   0.11  -0.33    -0.10   0.04  -0.15     0.23  -0.08   0.35
  10   1    -0.49  -0.34  -0.02     0.22   0.16   0.02    -0.53  -0.39  -0.05
  11   1     0.17  -0.48   0.02     0.05  -0.19   0.00    -0.11   0.44  -0.01
  12   1     0.02  -0.08   0.00     0.00  -0.01   0.00    -0.00   0.01  -0.00
  13   1    -0.03   0.02  -0.05    -0.00   0.00  -0.00     0.00  -0.00   0.00
  14   1     0.01  -0.05   0.00     0.00  -0.00   0.00    -0.00   0.01  -0.00
  15   1    -0.03   0.01  -0.05    -0.00   0.00  -0.00     0.01  -0.00   0.01
  16   1     0.01  -0.03   0.00     0.00  -0.00   0.00    -0.00  -0.00   0.00
  17   1    -0.01   0.00  -0.01    -0.00   0.00  -0.00    -0.00   0.00  -0.00
  18   1     0.01  -0.00  -0.01     0.00  -0.00   0.00     0.00  -0.00  -0.00
  19   1     0.00  -0.01   0.00    -0.00   0.00  -0.00    -0.00   0.00  -0.00
  20   1    -0.02  -0.01   0.00     0.00   0.00  -0.00     0.01   0.01  -0.00
  21   1     0.02  -0.01  -0.03    -0.01   0.00   0.01    -0.00   0.00   0.01
  22   1    -0.03  -0.03   0.01     0.00   0.00  -0.00     0.00   0.00  -0.00
  23   1     0.02  -0.01  -0.03    -0.00   0.00   0.00    -0.00   0.00   0.00
  24   1     0.09  -0.04  -0.19    -0.19   0.12   0.37    -0.08   0.05   0.15
  25   1    -0.14  -0.11   0.05     0.29   0.28  -0.11     0.13   0.12  -0.05
  26   1     0.09  -0.21   0.03     0.26  -0.63   0.05     0.11  -0.26   0.02
