      -----------------------------------------------------------      
     |                   =====================                   |     
     |                           x T B                           |     
     |                   =====================                   |     
     |                         S. Grimme                         |     
     |          Mulliken Center for Theoretical Chemistry        |     
     |                    University of Bonn                     |     
      -----------------------------------------------------------      

   * xtb version 6.6.1 (8d0f1dd) compiled by 'stahn@M-Bot' on 2023-08-01

   xtb is free software: you can redistribute it and/or modify it under
   the terms of the GNU Lesser General Public License as published by
   the Free Software Foundation, either version 3 of the License, or
   (at your option) any later version.
   
   xtb is distributed in the hope that it will be useful,
   but WITHOUT ANY WARRANTY; without even the implied warranty of
   MERCHANTABILITY or FITNESS FOR A PARTICULAR PURPOSE.  See the
   GNU Lesser General Public License for more details.
   
   Cite this work as:
   * C. Bannwarth, E. Caldeweyher, S. Ehlert, A. Hansen, P. Pracht,
     J. Seibert, S. Spicher, S. Grimme, WIREs Comput. Mol. Sci., 2020, 11,
     e01493. DOI: 10.1002/wcms.1493
   
   for GFN2-xTB:
   * C. Bannwarth, S. Ehlert and S. Grimme., J. Chem. Theory Comput., 2019,
     15, 1652-1671. DOI: 10.1021/acs.jctc.8b01176
   for GFN1-xTB:
   * S. Grimme, C. Bannwarth, P. Shushkov, J. Chem. Theory Comput., 2017,
     13, 1989-2009. DOI: 10.1021/acs.jctc.7b00118
   for GFN0-xTB:
   * P. Pracht, E. Caldeweyher, S. Ehlert, S. Grimme, ChemRxiv, 2019, preprint.
     DOI: 10.26434/chemrxiv.8326202.v1
   for GFN-FF:
   * S. Spicher and S. Grimme, Angew. Chem. Int. Ed., 2020, 59, 15665-15673.
     DOI: 10.1002/anie.202004239
   
   for ALPB and GBSA implicit solvation:
   * S. Ehlert, M. Stahn, S. Spicher, S. Grimme, J. Chem. Theory Comput.,
     2021, 17, 4250-4261. DOI: 10.1021/acs.jctc.1c00471
   
   for DFT-D4:
   * E. Caldeweyher, C. Bannwarth and S. Grimme, J. Chem. Phys., 2017,
     147, 034112. DOI: 10.1063/1.4993215
   * E. Caldeweyher, S. Ehlert, A. Hansen, H. Neugebauer, S. Spicher,
     C. Bannwarth and S. Grimme, J. Chem. Phys., 2019, 150, 154122.
     DOI: 10.1063/1.5090222
   * E. Caldeweyher, J.-M. Mewes, S. Ehlert and S. Grimme, Phys. Chem. Chem. Phys.
     2020, 22, 8499-8512. DOI: 10.1039/D0CP00502A
   
   for sTDA-xTB:
   * S. Grimme and C. Bannwarth, J. Chem. Phys., 2016, 145, 054103.
     DOI: 10.1063/1.4959605
   
   in the mass-spec context:
   * V. Asgeirsson, C. Bauer and S. Grimme, Chem. Sci., 2017, 8, 4879.
     DOI: 10.1039/c7sc00601b
   * J. Koopman and S. Grimme, ACS Omega 2019, 4, 12, 15120-15133.
     DOI: 10.1021/acsomega.9b02011
   
   for metadynamics refer to:
   * S. Grimme, J. Chem. Theory Comput., 2019, 155, 2847-2862
     DOI: 10.1021/acs.jctc.9b00143
   
   for SPH calculations refer to:
   * S. Spicher and S. Grimme, J. Chem. Theory Comput., 2021, 17, 1701-1714
     DOI: 10.1021/acs.jctc.0c01306
   
   with help from (in alphabetical order)
   P. Atkinson, C. Bannwarth, F. Bohle, G. Brandenburg, E. Caldeweyher
   M. Checinski, S. Dohm, S. Ehlert, S. Ehrlich, I. Gerasimov, C. Hölzer
   A. Katbashev, J. Koopman, C. Lavigne, S. Lehtola, F. März, M. Müller,
   F. Musil, H. Neugebauer, J. Pisarek, C. Plett, P. Pracht, F. Pultar,
   J. Seibert, P. Shushkov, S. Spicher, M. Stahn, M. Steiner, T. Strunk,
   J. Stückrath, T. Rose, and J. Unsleber
   
 * started run on 2024/04/23 at 12:10:21.010     

           -------------------------------------------------
          |                Calculation Setup                |
           -------------------------------------------------

          program call               : xtb folded.xyz --gfn 2 --ohess -P 4
          coordinate file            : folded.xyz
          omp threads                :                     4

   ID    Z sym.   atoms
    1    6 C      1-8
    2    1 H      9-26

           -------------------------------------------------
          |                 G F N 2 - x T B                 |
           -------------------------------------------------

        Reference                      10.1021/acs.jctc.8b01176
      * Hamiltonian:
        H0-scaling (s, p, d)           1.850000    2.230000    2.230000
        zeta-weighting                 0.500000
      * Dispersion:
        s8                             2.700000
        a1                             0.520000
        a2                             5.000000
        s9                             5.000000
      * Repulsion:
        kExp                           1.500000    1.000000
        rExp                           1.000000
      * Coulomb:
        alpha                          2.000000
        third order                    shell-resolved
        anisotropic                    true
        a3                             3.000000
        a5                             4.000000
        cn-shift                       1.200000
        cn-exp                         4.000000
        max-rad                        5.000000


          ...................................................
          :                      SETUP                      :
          :.................................................:
          :  # basis functions                  50          :
          :  # atomic orbitals                  50          :
          :  # shells                           34          :
          :  # electrons                        50          :
          :  max. iterations                   250          :
          :  Hamiltonian                  GFN2-xTB          :
          :  restarted?                      false          :
          :  GBSA solvation                  false          :
          :  PC potential                    false          :
          :  electronic temp.          300.0000000     K    :
          :  accuracy                    1.0000000          :
          :  -> integral cutoff          0.2500000E+02      :
          :  -> integral neglect         0.1000000E-07      :
          :  -> SCF convergence          0.1000000E-05 Eh   :
          :  -> wf. convergence          0.1000000E-03 e    :
          :  Broyden damping             0.4000000          :
          ...................................................

 iter      E             dE          RMSdq      gap      omega  full diag
   1    -26.6332593 -0.266333E+02  0.244E+00   13.05       0.0  T
   2    -26.7037750 -0.705156E-01  0.124E+00   12.77       1.0  T
   3    -26.7045776 -0.802665E-03  0.674E-01   12.75       1.0  T
   4    -26.7047849 -0.207237E-03  0.856E-02   12.76       1.0  T
   5    -26.7047934 -0.859048E-05  0.459E-02   12.76       1.0  T
   6    -26.7047946 -0.110251E-05  0.315E-03   12.76       6.2  T
   7    -26.7047946 -0.563881E-07  0.134E-03   12.76      14.7  T
   8    -26.7047946 -0.567562E-08  0.280E-04   12.76      70.0  T
   9    -26.7047946 -0.164079E-09  0.118E-04   12.76     166.7  T

   *** convergence criteria satisfied after 9 iterations ***

         #    Occupation            Energy/Eh            Energy/eV
      -------------------------------------------------------------
         1        2.0000           -0.6214823             -16.9114
       ...           ...                  ...                  ...
        19        2.0000           -0.4416822             -12.0188
        20        2.0000           -0.4358316             -11.8596
        21        2.0000           -0.4263956             -11.6028
        22        2.0000           -0.4238424             -11.5333
        23        2.0000           -0.4181424             -11.3782
        24        2.0000           -0.4158154             -11.3149
        25        2.0000           -0.4091588             -11.1338 (HOMO)
        26                          0.0598527               1.6287 (LUMO)
        27                          0.0735650               2.0018
        28                          0.0948572               2.5812
        29                          0.1137781               3.0961
        30                          0.1173487               3.1932
       ...                                ...                  ...
        50                          0.3053297               8.3084
      -------------------------------------------------------------
                  HL-Gap            0.4690114 Eh           12.7625 eV
             Fermi-level           -0.1746531 Eh           -4.7526 eV

 SCC (total)                   0 d,  0 h,  0 min,  0.008 sec
 SCC setup                      ...        0 min,  0.000 sec (  4.348%)
 Dispersion                     ...        0 min,  0.000 sec (  1.798%)
 classical contributions        ...        0 min,  0.000 sec (  0.262%)
 integral evaluation            ...        0 min,  0.001 sec (  8.321%)
 iterations                     ...        0 min,  0.005 sec ( 59.344%)
 molecular gradient             ...        0 min,  0.002 sec ( 22.208%)
 printout                       ...        0 min,  0.000 sec (  3.356%)

         :::::::::::::::::::::::::::::::::::::::::::::::::::::
         ::                     SUMMARY                     ::
         :::::::::::::::::::::::::::::::::::::::::::::::::::::
         :: total energy             -26.319123643629 Eh    ::
         :: gradient norm              0.026338663853 Eh/a0 ::
         :: HOMO-LUMO gap             12.762451109337 eV    ::
         ::.................................................::
         :: SCC energy               -26.704794613710 Eh    ::
         :: -> isotropic ES            0.004514865494 Eh    ::
         :: -> anisotropic ES          0.009121168776 Eh    ::
         :: -> anisotropic XC          0.016127536208 Eh    ::
         :: -> dispersion             -0.015703611448 Eh    ::
         :: repulsion energy           0.385599758346 Eh    ::
         :: add. restraining           0.000000000000 Eh    ::
         :: total charge              -0.000000000000 e     ::
         :::::::::::::::::::::::::::::::::::::::::::::::::::::

      ----------------------------------------------------------- 
     |                   =====================                   |
     |                        A N C O P T                        |
     |                   =====================                   |
     |               Approximate Normal Coordinate               |
     |                Rational Function Optimizer                |
      ----------------------------------------------------------- 

          ...................................................
          :                      SETUP                      :
          :.................................................:
          :   optimization level            normal          :
          :   max. optcycles                   200          :
          :   ANC micro-cycles                  20          :
          :   degrees of freedom                72          :
          :.................................................:
          :   RF solver                   davidson          :
          :   write xtbopt.log                true          :
          :   linear?                        false          :
          :   energy convergence         0.5000000E-05 Eh   :
          :   grad. convergence          0.1000000E-02 Eh/α :
          :   maxmium RF displ.          2.0000000          :
          :   Hlow (freq-cutoff)         0.2000000E-01      :
          :   Hmax (freq-cutoff)         5.0000000          :
          :   S6 in model hess.         70.0000000          :
          ...................................................

generating ANC from model Hessian ...
Using Lindh-Hessian (1995)
 Shifting diagonal of input Hessian by   1.873745391464606E-002
 Lowest  eigenvalues of input Hessian
    0.000000    0.000000    0.000000    0.000000    0.000000    0.000000
    0.020000    0.022660    0.023066    0.023870    0.024318    0.027531
    0.030560    0.032083    0.033197    0.034298    0.037639    0.039694
 Highest eigenvalues
    1.203332    1.213771    1.223356    1.250016    1.299519    1.316931
 

........................................................................
.............................. CYCLE    1 ..............................
........................................................................

 iter      E             dE          RMSdq      gap      omega  full diag
   1    -26.7047946 -0.267048E+02  0.212E-05   12.76       0.0  T
   2    -26.7047946 -0.109068E-11  0.125E-05   12.76    1572.7  T
   3    -26.7047946 -0.461853E-13  0.389E-06   12.76    5042.7  T
     SCC iter.                  ...        0 min,  0.001 sec
     gradient                   ...        0 min,  0.002 sec
 * total energy  :   -26.3191236 Eh     change       -0.2136602E-10 Eh
   gradient norm :     0.0263385 Eh/α   predicted     0.0000000E+00 (-100.00%)
   displ. norm   :     0.1534994 α      lambda       -0.2272590E-02
   maximum displ.:     0.0908870 α      in ANC's #31, #20, #22, ...

........................................................................
.............................. CYCLE    2 ..............................
........................................................................

 iter      E             dE          RMSdq      gap      omega  full diag
   1    -26.7129098 -0.267129E+02  0.127E-01   12.95       0.0  T
   2    -26.7129133 -0.351807E-05  0.732E-02   12.95       1.0  T
   3    -26.7129138 -0.512820E-06  0.387E-03   12.95       5.1  T
   4    -26.7129138 -0.432354E-07  0.124E-03   12.95      15.8  T
   5    -26.7129138 -0.218524E-08  0.665E-04   12.95      29.5  T
   6    -26.7129138 -0.348443E-09  0.569E-05   12.95     344.6  T
     SCC iter.                  ...        0 min,  0.004 sec
     gradient                   ...        0 min,  0.002 sec
 * total energy  :   -26.3206049 Eh     change       -0.1481300E-02 Eh
   gradient norm :     0.0115382 Eh/α   predicted    -0.1163071E-02 ( -21.48%)
   displ. norm   :     0.0723294 α      lambda       -0.3795399E-03
   maximum displ.:     0.0394839 α      in ANC's #31, #13, #11, ...

........................................................................
.............................. CYCLE    3 ..............................
........................................................................

 iter      E             dE          RMSdq      gap      omega  full diag
   1    -26.7179890 -0.267180E+02  0.563E-02   13.03       0.0  T
   2    -26.7179911 -0.200366E-05  0.318E-02   13.03       1.0  T
   3    -26.7179911 -0.919287E-07  0.375E-03   13.03       5.2  T
   4    -26.7179912 -0.159258E-07  0.634E-04   13.03      30.9  T
   5    -26.7179912 -0.122976E-08  0.354E-04   13.03      55.4  T
     SCC iter.                  ...        0 min,  0.002 sec
     gradient                   ...        0 min,  0.002 sec
 * total energy  :   -26.3208095 Eh     change       -0.2045267E-03 Eh
   gradient norm :     0.0022097 Eh/α   predicted    -0.1907889E-03 (  -6.72%)
   displ. norm   :     0.0198520 α      lambda       -0.1281108E-04
   maximum displ.:     0.0100118 α      in ANC's #6, #3, #1, ...

........................................................................
.............................. CYCLE    4 ..............................
........................................................................

 iter      E             dE          RMSdq      gap      omega  full diag
   1    -26.7185496 -0.267185E+02  0.571E-03   13.03       0.0  T
   2    -26.7185496 -0.613933E-07  0.326E-03   13.03       6.0  T
   3    -26.7185496 -0.116261E-08  0.791E-04   13.03      24.8  T
   4    -26.7185496 -0.487471E-09  0.119E-04   13.03     164.5  T
     SCC iter.                  ...        0 min,  0.002 sec
     gradient                   ...        0 min,  0.002 sec
 * total energy  :   -26.3208206 Eh     change       -0.1113785E-04 Eh
   gradient norm :     0.0005678 Eh/α   predicted    -0.7406472E-05 ( -33.50%)
   displ. norm   :     0.0581898 α      lambda       -0.1497585E-04
   maximum displ.:     0.0303164 α      in ANC's #3, #6, #1, ...

........................................................................
.............................. CYCLE    5 ..............................
........................................................................

 iter      E             dE          RMSdq      gap      omega  full diag
   1    -26.7189039 -0.267189E+02  0.109E-02   13.03       0.0  T
   2    -26.7189040 -0.843154E-07  0.642E-03   13.03       3.1  T
   3    -26.7189040 -0.543782E-08  0.776E-04   13.03      25.3  T
   4    -26.7189040 -0.197634E-08  0.236E-04   13.03      83.0  T
     SCC iter.                  ...        0 min,  0.002 sec
     gradient                   ...        0 min,  0.002 sec
 * total energy  :   -26.3208323 Eh     change       -0.1169406E-04 Eh
   gradient norm :     0.0021095 Eh/α   predicted    -0.7507591E-05 ( -35.80%)
   displ. norm   :     0.0207259 α      lambda       -0.5946098E-05
   maximum displ.:     0.0123443 α      in ANC's #3, #1, #6, ...

........................................................................
.............................. CYCLE    6 ..............................
........................................................................

 iter      E             dE          RMSdq      gap      omega  full diag
   1    -26.7186877 -0.267187E+02  0.352E-03   13.03       0.0  T
   2    -26.7186877 -0.968817E-08  0.206E-03   13.03       9.5  T
   3    -26.7186877 -0.321744E-09  0.260E-04   13.03      75.3  T
   4    -26.7186877 -0.133184E-09  0.585E-05   13.03     335.0  T
     SCC iter.                  ...        0 min,  0.002 sec
     gradient                   ...        0 min,  0.002 sec
 * total energy  :   -26.3208376 Eh     change       -0.5296108E-05 Eh
   gradient norm :     0.0015243 Eh/α   predicted    -0.2976998E-05 ( -43.79%)
   displ. norm   :     0.1324631 α      lambda       -0.2020844E-04
   maximum displ.:     0.0813100 α      in ANC's #3, #1, #2, ...

........................................................................
.............................. CYCLE    7 ..............................
........................................................................

 iter      E             dE          RMSdq      gap      omega  full diag
   1    -26.7176734 -0.267177E+02  0.224E-02   13.03       0.0  T
   2    -26.7176736 -0.253808E-06  0.132E-02   13.02       1.5  T
   3    -26.7176736 -0.103894E-07  0.120E-03   13.02      16.3  T
   4    -26.7176736 -0.453344E-08  0.342E-04   13.02      57.3  T
   5    -26.7176736 -0.446352E-09  0.157E-04   13.02     124.7  T
     SCC iter.                  ...        0 min,  0.002 sec
     gradient                   ...        0 min,  0.002 sec
 * total energy  :   -26.3208487 Eh     change       -0.1113771E-04 Eh
   gradient norm :     0.0017095 Eh/α   predicted    -0.1018366E-04 (  -8.57%)
   displ. norm   :     0.0152307 α      lambda       -0.4485386E-05
   maximum displ.:     0.0114271 α      in ANC's #6, #7, #5, ...

........................................................................
.............................. CYCLE    8 ..............................
........................................................................

 iter      E             dE          RMSdq      gap      omega  full diag
   1    -26.7180984 -0.267181E+02  0.333E-03   13.03       0.0  T
   2    -26.7180985 -0.231242E-07  0.188E-03   13.03      10.4  T
   3    -26.7180985 -0.564331E-09  0.480E-04   13.03      40.9  T
   4    -26.7180985 -0.157726E-09  0.755E-05   13.03     259.7  T
     SCC iter.                  ...        0 min,  0.002 sec
     gradient                   ...        0 min,  0.003 sec
 * total energy  :   -26.3208542 Eh     change       -0.5498147E-05 Eh
   gradient norm :     0.0008554 Eh/α   predicted    -0.2243280E-05 ( -59.20%)
   displ. norm   :     0.0694930 α      lambda       -0.1122857E-04
   maximum displ.:     0.0373874 α      in ANC's #1, #3, #6, ...

........................................................................
.............................. CYCLE    9 ..............................
........................................................................

 iter      E             dE          RMSdq      gap      omega  full diag
   1    -26.7185602 -0.267186E+02  0.151E-02   13.03       0.0  T
   2    -26.7185603 -0.569519E-07  0.891E-03   13.03       2.2  T
   3    -26.7185603 -0.347325E-08  0.526E-04   13.03      37.3  T
   4    -26.7185603 -0.119670E-08  0.188E-04   13.03     104.2  T
     SCC iter.                  ...        0 min,  0.002 sec
     gradient                   ...        0 min,  0.002 sec
 * total energy  :   -26.3208664 Eh     change       -0.1217973E-04 Eh
   gradient norm :     0.0007420 Eh/α   predicted    -0.5626636E-05 ( -53.80%)
   displ. norm   :     0.1294035 α      lambda       -0.1044997E-04
   maximum displ.:     0.0780677 α      in ANC's #1, #3, #2, ...

........................................................................
.............................. CYCLE   10 ..............................
........................................................................

 iter      E             dE          RMSdq      gap      omega  full diag
   1    -26.7186500 -0.267187E+02  0.256E-02   13.02       0.0  T
   2    -26.7186501 -0.269076E-07  0.152E-02   13.02       1.3  T
   3    -26.7186501 -0.878631E-08  0.512E-04   13.02      38.3  T
   4    -26.7186501 -0.846640E-09  0.265E-04   13.02      73.9  T
     SCC iter.                  ...        0 min,  0.002 sec
     gradient                   ...        0 min,  0.002 sec
 * total energy  :   -26.3208778 Eh     change       -0.1134511E-04 Eh
   gradient norm :     0.0012262 Eh/α   predicted    -0.5267928E-05 ( -53.57%)
   displ. norm   :     0.1500516 α      lambda       -0.8087033E-05
   maximum displ.:     0.0921929 α      in ANC's #1, #3, #2, ...

........................................................................
.............................. CYCLE   11 ..............................
........................................................................

 iter      E             dE          RMSdq      gap      omega  full diag
   1    -26.7183177 -0.267183E+02  0.292E-02   13.03       0.0  T
   2    -26.7183177 -0.375139E-07  0.174E-02   13.03       1.1  T
   3    -26.7183177 -0.114690E-07  0.554E-04   13.03      35.4  T
   4    -26.7183177 -0.569255E-09  0.283E-04   13.03      69.2  T
     SCC iter.                  ...        0 min,  0.002 sec
     gradient                   ...        0 min,  0.002 sec
 * total energy  :   -26.3208855 Eh     change       -0.7735181E-05 Eh
   gradient norm :     0.0008665 Eh/α   predicted    -0.4090601E-05 ( -47.12%)
   displ. norm   :     0.0639368 α      lambda       -0.3178670E-05
   maximum displ.:     0.0388517 α      in ANC's #1, #3, #2, ...

........................................................................
.............................. CYCLE   12 ..............................
........................................................................

 iter      E             dE          RMSdq      gap      omega  full diag
   1    -26.7183482 -0.267183E+02  0.120E-02   13.03       0.0  T
   2    -26.7183482 -0.130304E-07  0.710E-03   13.03       2.8  T
   3    -26.7183482 -0.227904E-08  0.287E-04   13.03      68.4  T
   4    -26.7183482 -0.310120E-09  0.141E-04   13.03     139.4  T
     SCC iter.                  ...        0 min,  0.002 sec
     gradient                   ...        0 min,  0.002 sec
 * total energy  :   -26.3208887 Eh     change       -0.3190109E-05 Eh
   gradient norm :     0.0002397 Eh/α   predicted    -0.1594543E-05 ( -50.02%)
   displ. norm   :     0.0362515 α      lambda       -0.1779022E-05
   maximum displ.:     0.0192041 α      in ANC's #1, #3, #2, ...

   *** GEOMETRY OPTIMIZATION CONVERGED AFTER 12 ITERATIONS ***

------------------------------------------------------------------------
 total energy gain   :        -0.0017650 Eh       -1.1076 kcal/mol
 total RMSD          :         0.1301672 a0        0.0689 Å
 total power (kW/mol):        -0.3861762 (step)  -68.1379 (real)
------------------------------------------------------------------------

 ANCopt (total)                0 d,  0 h,  0 min,  0.068 sec
 optimizer setup                ...        0 min,  0.001 sec (  1.198%)
 model hessian                  ...        0 min,  0.009 sec ( 13.297%)
 ANC generation                 ...        0 min,  0.001 sec (  0.836%)
 coordinate transformation      ...        0 min,  0.000 sec (  0.201%)
 single point calculation       ...        0 min,  0.054 sec ( 79.611%)
 optimization log               ...        0 min,  0.001 sec (  1.542%)
 hessian update                 ...        0 min,  0.000 sec (  0.344%)
 rational function              ...        0 min,  0.001 sec (  1.192%)

================
 final structure:
================
26
 xtb: 6.6.1 (8d0f1dd)
C           -3.57414903732645       -0.28418990156101        1.16447481492408
C           -2.66847798469895       -0.56118216696429       -0.02932296297623
C           -1.39540352849178        0.28117250797653        0.01036189814832
C           -0.49016077576986       -0.00580417645268       -1.18535932843510
C            0.72872941989392        0.91497726017351       -1.26623241920789
C            1.69186322841307        0.81956316586106       -0.08183539842750
C            2.32716922297103       -0.55966194939974        0.07865029846328
C            3.38545849127853       -0.56503614486074        1.17547683731032
H           -3.05394544652595       -0.49664703380282        2.09620587135227
H           -4.46628114197469       -0.90483943466481        1.12072994968081
H           -3.88231383778729        0.75921787752219        1.17593120596003
H           -2.39797172720784       -1.61981137125097       -0.04104856410440
H           -3.21267931206784       -0.35014141854021       -0.95297666422107
H           -1.66329869545869        1.34064041186800        0.01466928799701
H           -0.86204221887091        0.06858254313299        0.93839811172513
H           -0.16493326813229       -1.04708254955720       -1.15203953735454
H           -1.07222898133596        0.12146559261802       -2.10217473407092
H            1.27764687169503        0.68095156386645       -2.18222091496702
H            0.38102397288447        1.94820884369159       -1.34692781521903
H            2.48741708248457        1.55448627283575       -0.23165514703401
H            1.17269330130846        1.08884532740929        0.83955337672612
H            1.55871201024306       -1.29428753513085        0.32429218129256
H            2.78409633390453       -0.85805223644883       -0.86796257712532
H            2.94725052323886       -0.27719512399875        2.12895077333467
H            4.18306063194686        0.13711050871817        0.94151809184778
H            3.82143886538606       -1.55562883304056        1.28368036438073
           -------------------------------------------------
          |                Final Singlepoint                |
           -------------------------------------------------

          ...................................................
          :                      SETUP                      :
          :.................................................:
          :  # basis functions                  50          :
          :  # atomic orbitals                  50          :
          :  # shells                           34          :
          :  # electrons                        50          :
          :  max. iterations                   250          :
          :  Hamiltonian                  GFN2-xTB          :
          :  restarted?                      false          :
          :  GBSA solvation                  false          :
          :  PC potential                    false          :
          :  electronic temp.          300.0000000     K    :
          :  accuracy                    1.0000000          :
          :  -> integral cutoff          0.2500000E+02      :
          :  -> integral neglect         0.1000000E-07      :
          :  -> SCF convergence          0.1000000E-05 Eh   :
          :  -> wf. convergence          0.1000000E-03 e    :
          :  Broyden damping             0.4000000          :
          ...................................................

 iter      E             dE          RMSdq      gap      omega  full diag
   1    -26.7183482 -0.267183E+02  0.409E-05   13.03       0.0  T
   2    -26.7183482 -0.248335E-11  0.236E-05   13.03     830.5  T
   3    -26.7183482  0.497380E-13  0.726E-06   13.03    2700.5  T

   *** convergence criteria satisfied after 3 iterations ***

         #    Occupation            Energy/Eh            Energy/eV
      -------------------------------------------------------------
         1        2.0000           -0.6223331             -16.9345
       ...           ...                  ...                  ...
        19        2.0000           -0.4413362             -12.0094
        20        2.0000           -0.4353030             -11.8452
        21        2.0000           -0.4261966             -11.5974
        22        2.0000           -0.4233510             -11.5200
        23        2.0000           -0.4179476             -11.3729
        24        2.0000           -0.4156993             -11.3118
        25        2.0000           -0.4111434             -11.1878 (HOMO)
        26                          0.0676934               1.8420 (LUMO)
        27                          0.0813637               2.2140
        28                          0.1047193               2.8496
        29                          0.1185163               3.2250
        30                          0.1234423               3.3590
       ...                                ...                  ...
        50                          0.3192924               8.6884
      -------------------------------------------------------------
                  HL-Gap            0.4788368 Eh           13.0298 eV
             Fermi-level           -0.1717250 Eh           -4.6729 eV

 SCC (total)                   0 d,  0 h,  0 min,  0.004 sec
 SCC setup                      ...        0 min,  0.000 sec (  5.448%)
 Dispersion                     ...        0 min,  0.000 sec (  1.359%)
 classical contributions        ...        0 min,  0.000 sec (  0.576%)
 integral evaluation            ...        0 min,  0.001 sec ( 12.825%)
 iterations                     ...        0 min,  0.001 sec ( 31.126%)
 molecular gradient             ...        0 min,  0.002 sec ( 42.231%)
 printout                       ...        0 min,  0.000 sec (  5.728%)

         :::::::::::::::::::::::::::::::::::::::::::::::::::::
         ::                     SUMMARY                     ::
         :::::::::::::::::::::::::::::::::::::::::::::::::::::
         :: total energy             -26.320888684410 Eh    ::
         :: gradient norm              0.000239773411 Eh/a0 ::
         :: HOMO-LUMO gap             13.029811360622 eV    ::
         ::.................................................::
         :: SCC energy               -26.718348189343 Eh    ::
         :: -> isotropic ES            0.004819054386 Eh    ::
         :: -> anisotropic ES          0.008695939267 Eh    ::
         :: -> anisotropic XC          0.016289650524 Eh    ::
         :: -> dispersion             -0.015711189071 Eh    ::
         :: repulsion energy           0.397396977082 Eh    ::
         :: add. restraining           0.000000000000 Eh    ::
         :: total charge              -0.000000000000 e     ::
         :::::::::::::::::::::::::::::::::::::::::::::::::::::

           ------------------------------------------------- 
          |                Numerical Hessian                |
           ------------------------------------------------- 
step length          :   0.00500
SCC accuracy         :   0.30000
Hessian scale factor :   1.00000
frozen atoms in %    :   0.00000    0
RMS gradient         :   0.00024
estimated CPU  time      0.10 min
estimated wall time      0.02 min

writing file <hessian>.

 projected vibrational frequencies (cm⁻¹)
eigval :       -0.00    -0.00     0.00     0.00     0.00     0.00
eigval :       35.04    62.52    70.79   104.22   151.48   202.79
eigval :      227.47   234.56   265.30   295.18   399.74   416.63
eigval :      500.25   757.93   779.95   808.70   857.61   890.69
eigval :      920.84   944.85   956.13   989.73  1048.62  1069.13
eigval :     1084.34  1095.39  1113.37  1148.04  1154.88  1161.15
eigval :     1217.35  1230.16  1258.63  1277.52  1282.05  1286.48
eigval :     1291.57  1310.84  1350.09  1363.35  1374.31  1378.09
eigval :     1416.47  1416.76  1489.61  1492.78  1497.67  1500.49
eigval :     1502.59  1504.70  1505.37  1505.91  1508.10  1508.92
eigval :     2955.36  2955.57  2957.76  2959.81  2968.58  2971.54
eigval :     2975.84  2977.43  2985.95  2988.53  2992.53  2996.19
eigval :     3028.06  3028.95  3030.74  3031.34  3036.50  3037.08
           -------------------------------------------------
          |                Property Printout                |
           -------------------------------------------------

    * Orbital Energies and Occupations

         #    Occupation            Energy/Eh            Energy/eV
      -------------------------------------------------------------
         1        2.0000           -0.6223331             -16.9345
       ...           ...                  ...                  ...
        13        2.0000           -0.4883266             -13.2880
        14        2.0000           -0.4784025             -13.0180
        15        2.0000           -0.4692577             -12.7692
        16        2.0000           -0.4674311             -12.7194
        17        2.0000           -0.4510640             -12.2741
        18        2.0000           -0.4485212             -12.2049
        19        2.0000           -0.4413362             -12.0094
        20        2.0000           -0.4353029             -11.8452
        21        2.0000           -0.4261966             -11.5974
        22        2.0000           -0.4233510             -11.5200
        23        2.0000           -0.4179476             -11.3729
        24        2.0000           -0.4156993             -11.3118
        25        2.0000           -0.4111434             -11.1878 (HOMO)
        26                          0.0676934               1.8420 (LUMO)
        27                          0.0813637               2.2140
        28                          0.1047193               2.8496
        29                          0.1185163               3.2250
        30                          0.1234423               3.3590
        31                          0.1273202               3.4646
        32                          0.1455154               3.9597
        33                          0.1493434               4.0638
        34                          0.1592879               4.3344
        35                          0.1721023               4.6831
        36                          0.1755615               4.7773
       ...                                ...                  ...
        50                          0.3192924               8.6884
      -------------------------------------------------------------
                  HL-Gap            0.4788368 Eh           13.0298 eV
             Fermi-level           -0.1717250 Eh           -4.6729 eV

     #   Z          covCN         q      C6AA      α(0)
     1   6 C        3.752    -0.102    22.501     6.765
     2   6 C        3.801    -0.053    21.521     6.605
     3   6 C        3.802    -0.059    21.628     6.621
     4   6 C        3.802    -0.058    21.617     6.620
     5   6 C        3.801    -0.058    21.609     6.619
     6   6 C        3.802    -0.059    21.628     6.621
     7   6 C        3.800    -0.053    21.518     6.605
     8   6 C        3.752    -0.102    22.502     6.765
     9   1 H        0.925     0.033     2.548     2.496
    10   1 H        0.925     0.032     2.559     2.502
    11   1 H        0.925     0.033     2.547     2.496
    12   1 H        0.924     0.027     2.625     2.534
    13   1 H        0.924     0.027     2.627     2.535
    14   1 H        0.924     0.029     2.598     2.521
    15   1 H        0.924     0.033     2.545     2.495
    16   1 H        0.924     0.030     2.581     2.513
    17   1 H        0.924     0.027     2.636     2.539
    18   1 H        0.924     0.028     2.618     2.531
    19   1 H        0.924     0.028     2.612     2.528
    20   1 H        0.924     0.028     2.615     2.529
    21   1 H        0.924     0.032     2.561     2.502
    22   1 H        0.924     0.032     2.563     2.503
    23   1 H        0.924     0.028     2.617     2.530
    24   1 H        0.925     0.032     2.559     2.501
    25   1 H        0.925     0.032     2.563     2.504
    26   1 H        0.925     0.032     2.565     2.504

 Mol. C6AA /au·bohr⁶  :       4382.955182
 Mol. C8AA /au·bohr⁸  :      90688.691899
 Mol. α(0) /au        :         98.480863


Wiberg/Mayer (AO) data.
largest (>0.10) Wiberg bond orders for each atom

 ---------------------------------------------------------------------------
     #   Z sym  total        # sym  WBO       # sym  WBO       # sym  WBO
 ---------------------------------------------------------------------------
     1   6 C    3.997 --     2 C    1.019    11 H    0.988     9 H    0.988
                            10 H    0.988
     2   6 C    3.998 --     1 C    1.019     3 C    1.008    12 H    0.979
                            13 H    0.979
     3   6 C    3.998 --     4 C    1.008     2 C    1.008    14 H    0.977
                            15 H    0.975
     4   6 C    3.998 --     3 C    1.008     5 C    1.007    17 H    0.977
                            16 H    0.976
     5   6 C    3.997 --     6 C    1.007     4 C    1.007    19 H    0.978
                            18 H    0.977
     6   6 C    3.997 --     7 C    1.009     5 C    1.007    20 H    0.977
                            21 H    0.976
     7   6 C    3.998 --     8 C    1.019     6 C    1.009    23 H    0.978
                            22 H    0.977
     8   6 C    3.997 --     7 C    1.019    24 H    0.988    25 H    0.988
                            26 H    0.988
     9   1 H    0.999 --     1 C    0.988
    10   1 H    0.999 --     1 C    0.988
    11   1 H    0.999 --     1 C    0.988
    12   1 H    0.999 --     2 C    0.979
    13   1 H    0.999 --     2 C    0.979
    14   1 H    0.999 --     3 C    0.977
    15   1 H    0.999 --     3 C    0.975
    16   1 H    0.999 --     4 C    0.976
    17   1 H    0.999 --     4 C    0.977
    18   1 H    0.999 --     5 C    0.977
    19   1 H    0.999 --     5 C    0.978
    20   1 H    0.999 --     6 C    0.977
    21   1 H    0.999 --     6 C    0.976
    22   1 H    0.999 --     7 C    0.977
    23   1 H    0.999 --     7 C    0.978
    24   1 H    0.999 --     8 C    0.988
    25   1 H    0.999 --     8 C    0.988
    26   1 H    0.999 --     8 C    0.988
 ---------------------------------------------------------------------------

Topologies differ in total number of bonds
Writing topology from bond orders to xtbtopo.mol

molecular dipole:
                 x           y           z       tot (Debye)
 q only:        0.001       0.002       0.015
   full:        0.001       0.002       0.011       0.029
molecular quadrupole (traceless):
                xx          xy          yy          xz          yz          zz
 q only:       -0.085       0.029      -0.005      -0.055       0.066       0.089
  q+dip:       -0.781      -0.303       0.770      -0.137      -0.158       0.012
   full:       -0.378      -0.135       0.358      -0.080      -0.077       0.020

           -------------------------------------------------
          |                Geometry Summary                 |
           -------------------------------------------------

      molecular mass/u    :      114.2288207
   center of mass at/Å    :       -0.0009038      -0.0020247       0.0034652
  moments of inertia/u·Å² :        0.1505423E+03   0.6706501E+03   0.7508484E+03
rotational constants/cm⁻¹ :        0.1119794E+00   0.2513626E-01   0.2245144E-01

 * 25 selected distances

     #   Z          #   Z                                           value/Å
     1   6 C        2   6 C                                       1.5238498
     2   6 C        3   6 C                                       1.5270414
     3   6 C        4   6 C                                       1.5269479
     4   6 C        5   6 C                                       1.5297296 (max)
     5   6 C        6   6 C                                       1.5295513
     6   6 C        7   6 C                                       1.5269681
     7   6 C        8   6 C                                       1.5241502
     1   6 C        9   1 H                                       1.0880592
     1   6 C       10   1 H                                       1.0876669 (min)
     1   6 C       11   1 H                                       1.0880243
     2   6 C       12   1 H                                       1.0927063
     2   6 C       13   1 H                                       1.0926251
     3   6 C       14   1 H                                       1.0928215
     3   6 C       15   1 H                                       1.0912929
     4   6 C       16   1 H                                       1.0913954
     4   6 C       17   1 H                                       1.0934129
     5   6 C       18   1 H                                       1.0932125
     5   6 C       19   1 H                                       1.0931507
     6   6 C       20   1 H                                       1.0933728
     6   6 C       21   1 H                                       1.0913330
     7   6 C       22   1 H                                       1.0911193
     7   6 C       23   1 H                                       1.0926552
     8   6 C       24   1 H                                       1.0881137
     8   6 C       25   1 H                                       1.0880790
     8   6 C       26   1 H                                       1.0876861

 * 2 distinct bonds (by element types)

   Z      Z             #   av. dist./Å        max./Å        min./Å
   1 H    6 C          18     1.0909293     1.0934129     1.0876669
   6 C    6 C           7     1.5268912     1.5297296     1.5238498

           -------------------------------------------------
          |               Frequency Printout                |
           -------------------------------------------------
 projected vibrational frequencies (cm⁻¹)
eigval :       -0.00    -0.00     0.00     0.00     0.00     0.00
eigval :       35.04    62.52    70.79   104.22   151.48   202.79
eigval :      227.47   234.56   265.30   295.18   399.74   416.63
eigval :      500.25   757.93   779.95   808.70   857.61   890.69
eigval :      920.84   944.85   956.13   989.73  1048.62  1069.13
eigval :     1084.34  1095.39  1113.37  1148.04  1154.88  1161.15
eigval :     1217.35  1230.16  1258.63  1277.52  1282.05  1286.48
eigval :     1291.57  1310.84  1350.09  1363.35  1374.31  1378.09
eigval :     1416.47  1416.76  1489.61  1492.78  1497.67  1500.49
eigval :     1502.59  1504.70  1505.37  1505.91  1508.10  1508.92
eigval :     2955.36  2955.57  2957.76  2959.81  2968.58  2971.54
eigval :     2975.84  2977.43  2985.95  2988.53  2992.53  2996.19
eigval :     3028.06  3028.95  3030.74  3031.34  3036.50  3037.08
 reduced masses (amu)
   1:  9.72   2: 10.11   3:  9.74   4:  9.67   5: 10.02   6:  9.19   7:  8.70   8:  5.70
   9:  5.89  10:  8.10  11:  8.30  12:  7.03  13:  3.04  14:  2.65  15:  6.74  16:  7.88
  17:  8.53  18:  8.66  19:  8.16  20:  2.32  21:  2.03  22:  2.84  23:  3.55  24:  6.65
  25:  5.13  26:  4.50  27:  4.94  28:  4.91  29:  6.41  30:  4.03  31:  7.54  32:  8.44
  33:  7.53  34:  8.12  35:  7.58  36:  7.06  37:  5.17  38:  4.53  39:  3.51  40:  3.32
  41:  2.33  42:  1.83  43:  2.46  44:  3.42  45:  4.29  46:  4.66  47:  5.15  48:  5.48
  49:  3.18  50:  3.16  51:  1.87  52:  1.98  53:  1.90  54:  1.84  55:  1.82  56:  1.92
  57:  1.54  58:  1.55  59:  1.66  60:  1.67  61:  1.95  62:  1.83  63:  1.86  64:  1.91
  65:  1.78  66:  1.81  67:  1.57  68:  1.49  69:  1.69  70:  1.55  71:  1.72  72:  1.59
  73:  1.96  74:  1.96  75:  1.91  76:  1.91  77:  1.28  78:  1.28
 IR intensities (km·mol⁻¹)
   1:  0.00   2:  0.00   3:  0.00   4:  0.00   5:  0.00   6:  0.00   7:  0.00   8:  0.01
   9:  0.01  10:  0.02  11:  0.13  12:  0.03  13:  0.07  14:  0.02  15:  0.19  16:  0.32
  17:  0.06  18:  0.03  19:  0.81  20: 13.50  21:  8.22  22:  0.72  23:  0.78  24:  0.60
  25:  2.38  26:  4.10  27:  4.68  28:  1.64  29:  0.14  30:  1.65  31:  0.80  32:  0.42
  33:  0.80  34:  0.15  35:  2.01  36:  0.50  37:  0.40  38:  0.51  39:  0.20  40:  0.05
  41:  0.15  42:  0.11  43:  0.41  44:  1.26  45:  0.18  46:  3.56  47:  0.15  48:  1.73
  49:  0.79  50:  0.70  51:  0.24  52:  0.48  53:  0.74  54:  0.25  55:  0.29  56:  0.08
  57:  2.26  58:  2.45  59:  1.27  60:  0.94  61: 20.74  62:  6.07  63: 20.99  64:  6.84
  65: 11.57  66: 60.05  67:100.83  68: 15.81  69: 41.17  70:  2.12  71: 57.72  72:151.65
  73: 60.13  74: 66.54  75: 26.65  76:100.48  77: 36.76  78: 27.33
 Raman intensities (amu)
   1:  0.00   2:  0.00   3:  0.00   4:  0.00   5:  0.00   6:  0.00   7:  0.00   8:  0.00
   9:  0.00  10:  0.00  11:  0.00  12:  0.00  13:  0.00  14:  0.00  15:  0.00  16:  0.00
  17:  0.00  18:  0.00  19:  0.00  20:  0.00  21:  0.00  22:  0.00  23:  0.00  24:  0.00
  25:  0.00  26:  0.00  27:  0.00  28:  0.00  29:  0.00  30:  0.00  31:  0.00  32:  0.00
  33:  0.00  34:  0.00  35:  0.00  36:  0.00  37:  0.00  38:  0.00  39:  0.00  40:  0.00
  41:  0.00  42:  0.00  43:  0.00  44:  0.00  45:  0.00  46:  0.00  47:  0.00  48:  0.00
  49:  0.00  50:  0.00  51:  0.00  52:  0.00  53:  0.00  54:  0.00  55:  0.00  56:  0.00
  57:  0.00  58:  0.00  59:  0.00  60:  0.00  61:  0.00  62:  0.00  63:  0.00  64:  0.00
  65:  0.00  66:  0.00  67:  0.00  68:  0.00  69:  0.00  70:  0.00  71:  0.00  72:  0.00
  73:  0.00  74:  0.00  75:  0.00  76:  0.00  77:  0.00  78:  0.00
 output can be read by thermo (or use thermo option).
 writing <g98.out> molden fake output.
 recommended (thermochemical) frequency scaling factor: 1.0
           -------------------------------------------------
          |             Thermodynamic Functions             |
           -------------------------------------------------

Molecule has no symmetry elements
It seems to be the C1 point group
c1  symmetry found (for desy threshold:  0.10E+00) used in thermo

          ...................................................
          :                      SETUP                      :
          :.................................................:
          :  # frequencies                          72      :
          :  # imaginary freq.                       0      :
          :  linear?                             false      :
          :  only rotor calc.                    false      :
          :  symmetry                               c1      :
          :  rotational number                       1      :
          :  scaling factor                  1.0000000      :
          :  rotor cutoff                   50.0000000 cm⁻¹ :
          :  imag. cutoff                  -20.0000000 cm⁻¹ :
          :.................................................:

    mode    ω/cm⁻¹     T·S(HO)/kcal·mol⁻¹    T·S(FR)/kcal·mol⁻¹   T·S(vib)
   ------------------------------------------------------------------------
       1     35.04    -1.64630 ( 19.42%)    -1.16164 ( 80.58%)    -1.25578
       2     62.52    -1.30469 ( 70.97%)    -0.99019 ( 29.03%)    -1.21339
       3     70.79    -1.23175 ( 80.07%)    -0.95342 ( 19.93%)    -1.17628
       4    104.22    -1.00589 ( 94.97%)    -0.83887 (  5.03%)    -0.99749
       5    151.48    -0.79115 ( 98.83%)    -0.72812 (  1.17%)    -0.79041
       6    202.79    -0.62840 ( 99.63%)    -0.64173 (  0.37%)    -0.62845
       7    227.47    -0.56613 ( 99.77%)    -0.60770 (  0.23%)    -0.56623
       8    234.56    -0.54973 ( 99.79%)    -0.59862 (  0.21%)    -0.54983
       9    265.30    -0.48498 ( 99.87%)    -0.56213 (  0.13%)    -0.48507
      10    295.18    -0.43055 ( 99.92%)    -0.53052 (  0.08%)    -0.43064
   ------------------------------------------------------------------------

   temp. (K)  partition function   enthalpy   heat capacity  entropy
                                   cal/mol     cal/K/mol   cal/K/mol   J/K/mol
 298.15  VIB  0.494E+04             5070.020     31.201     32.075
         ROT  0.665E+06              888.752      2.981     29.625
         INT  0.328E+10             5958.773     34.182     61.700
         TR   0.118E+28             1481.254      4.968     40.096
         TOT                        7440.0267    39.1503   101.7968   425.9180

       T/K    H(0)-H(T)+PV         H(T)/Eh          T*S/Eh         G(T)/Eh
   ------------------------------------------------------------------------
    298.15    0.118564E-01    0.255837E+00    0.483670E-01    0.207470E+00
   ------------------------------------------------------------------------

         :::::::::::::::::::::::::::::::::::::::::::::::::::::
         ::                  THERMODYNAMIC                  ::
         :::::::::::::::::::::::::::::::::::::::::::::::::::::
         :: total free energy         -26.113419087709 Eh   ::
         ::.................................................::
         :: total energy              -26.320888684410 Eh   ::
         :: zero point energy           0.243980121994 Eh   ::
         :: G(RRHO) w/o ZPVE           -0.036510525293 Eh   ::
         :: G(RRHO) contrib.            0.207469596701 Eh   ::
         :::::::::::::::::::::::::::::::::::::::::::::::::::::
 
 normal mode %tage of torsion character
   1:  0.00   2:  0.00   3:  0.00   4:  0.00   5:  0.00   6:  0.00   7:  0.43   8:  0.70
   9:  0.50  10:  0.51  11:  0.41  12:  0.55  13:  0.74  14:  0.86  15:  0.57  16:  0.40
  17:  0.12  18:  0.14  19:  0.22  20:  0.57  21:  0.49  22:  0.51  23:  0.50  24:  0.24
  25:  0.28  26:  0.29  27:  0.22  28:  0.27  29:  0.13  30:  0.37  31:  0.09  32:  0.09
  33:  0.12  34:  0.06  35:  0.21  36:  0.40  37:  0.46  38:  0.42  39:  0.20  40:  0.16
  41:  0.15  42:  0.24  43:  0.06  44:  0.10  45:  0.07  46:  0.09  47:  0.07  48:  0.06
  49:  0.00  50:  0.00  51:  0.65  52:  0.64  53:  0.65  54:  0.62  55:  0.65  56:  0.63
  57:  0.91  58:  0.90  59:  0.89  60:  0.81  61:  0.23  62:  0.29  63:  0.32  64:  0.34
  65:  0.09  66:  0.05  67:  0.01  68:  0.02  69:  0.02  70:  0.03  71:  0.02  72:  0.05
  73:  0.05  74:  0.08  75:  0.03  76:  0.03  77:  0.00  78:  0.00
 recommended # of modes for mode following           4

optimized geometry written to: xtbopt.xyz


           -------------------------------------------------
          | TOTAL ENERGY              -26.320888684410 Eh   |
          | TOTAL ENTHALPY            -26.065052125096 Eh   |
          | TOTAL FREE ENERGY         -26.113419087709 Eh   |
          | GRADIENT NORM               0.000239769585 Eh/α |
          | HOMO-LUMO GAP              13.029811306273 eV   |
           -------------------------------------------------

------------------------------------------------------------------------
 * finished run on 2024/04/23 at 12:10:21.571     
------------------------------------------------------------------------
 total:
 * wall-time:     0 d,  0 h,  0 min,  0.560 sec
 *  cpu-time:     0 d,  0 h,  0 min,  2.087 sec
 * ratio c/w:     3.728 speedup
 SCF:
 * wall-time:     0 d,  0 h,  0 min,  0.009 sec
 *  cpu-time:     0 d,  0 h,  0 min,  0.033 sec
 * ratio c/w:     3.763 speedup
 ANC optimizer:
 * wall-time:     0 d,  0 h,  0 min,  0.079 sec
 *  cpu-time:     0 d,  0 h,  0 min,  0.296 sec
 * ratio c/w:     3.758 speedup
 analytical hessian:
 * wall-time:     0 d,  0 h,  0 min,  0.393 sec
 *  cpu-time:     0 d,  0 h,  0 min,  1.553 sec
 * ratio c/w:     3.952 speedup

