26
 energy: -26.320888684410 gnorm: 0.000239773411 xtb: 6.6.1 (8d0f1dd)
C           -3.57414646047424       -0.28416915498541        1.16448778705389
C           -2.66848102534237       -0.56116824601538       -0.02931266878298
C           -1.39540202008011        0.28117983237277        0.01036627828683
C           -0.49016494384617       -0.00580367879742       -1.18535760731199
C            0.72872979068712        0.91497123457191       -1.26623655988037
C            1.69186723393710        0.81955416444521       -0.08184273455121
C            2.32716656708730       -0.55967399715154        0.07864315190401
C            3.38545963589157       -0.56505181949872        1.17546600599601
H           -3.05394072974223       -0.49662738484317        2.09621739842954
H           -4.46628196751318       -0.90481409323538        1.12074711917726
H           -3.88230575767452        0.75924025762399        1.17594343269772
H           -2.39798035174990       -1.61979888711820       -0.04103736649952
H           -3.21268447186308       -0.35012626022596       -0.95296483873539
H           -1.66329162465153        1.34064914646166        0.01467275414571
H           -0.86203858412098        0.06858869457098        0.93840100111387
H           -0.16494277202119       -1.04708369661993       -1.15203713411625
H           -1.07223568331643        0.12146753784535       -2.10217120326715
H            1.27764281971170        0.68094106545859       -2.18222656326400
H            0.38102947198537        1.94820449781716       -1.34693254549923
H            2.48742441306582        1.55447284441642       -0.23166654284621
H            1.17270193306122        1.08884065246666        0.83954738285428
H            1.55870636534262       -1.29429513051744        0.32428899931665
H            2.78408881133474       -0.85806832879469       -0.86797079786459
H            2.94725650325150       -0.27720684008103        2.12894096927012
H            4.18306463629888        0.13709024950369        0.94150325090146
H            3.82143520096786       -1.55564660160255        1.28366974011739
