26
 energy: -26.319123643650 gnorm: 0.026338494751 xtb: 6.6.1 (8d0f1dd)
C           -3.54443300000000       -0.29229500000000        1.19281700000000
C           -2.64063500000000       -0.58238800000000        0.00478100000000
C           -1.39442700000000        0.30426800000000       -0.02076500000000
C           -0.48195800000000        0.01547000000000       -1.21324900000000
C            0.73603200000000        0.94100400000000       -1.29346500000000
C            1.69116300000000        0.83383900000000       -0.10051000000000
C            2.32131000000000       -0.55108300000000        0.06082000000000
C            3.32736000000000       -0.60796100000000        1.19982300000000
H           -3.01824500000000       -0.44815900000000        2.13705700000000
H           -4.43039500000000       -0.93201500000000        1.20155000000000
H           -3.88778400000000        0.74450300000000        1.18410500000000
H           -2.33466500000000       -1.63745000000000        0.01055800000000
H           -3.19673800000000       -0.45431300000000       -0.93385400000000
H           -1.69350200000000        1.35994500000000       -0.03305800000000
H           -0.83914700000000        0.17588100000000        0.91618400000000
H           -0.15569400000000       -1.03096300000000       -1.17828400000000
H           -1.07003400000000        0.09352200000000       -2.13783600000000
H            1.29556800000000        0.73461900000000       -2.21565700000000
H            0.38772600000000        1.97758100000000       -1.39483800000000
H            2.49242500000000        1.57889300000000       -0.19840500000000
H            1.16850900000000        1.10692800000000        0.82406400000000
H            1.53403900000000       -1.29909300000000        0.22167400000000
H            2.80202000000000       -0.84194600000000       -0.88298700000000
H            2.85679000000000       -0.36482400000000        2.15493600000000
H            4.13676100000000        0.10939100000000        1.04840700000000
H            3.78062800000000       -1.59769200000000        1.29926900000000
26
 energy: -26.320604943694 gnorm: 0.011538184549 xtb: 6.6.1 (8d0f1dd)
C           -3.53715102106134       -0.28873122852030        1.18956092977429
C           -2.63718473352970       -0.58220129619164       -0.00080466110764
C           -1.39507569200670        0.30688374452621       -0.01642879323354
C           -0.48451283055560        0.01190650201969       -1.20682718503505
C            0.73330372729571        0.93466326543115       -1.28494636760498
C            1.68961098546041        0.83045385644719       -0.09563781789334
C            2.31963251751116       -0.55318024393824        0.05776236564633
C            3.32499442032772       -0.60076401692241        1.19742984151101
H           -3.00647827301125       -0.45094210354473        2.12776529485546
H           -4.41565725276260       -0.93334264137613        1.18485638724726
H           -3.87901485522520        0.74604996853232        1.17198946640203
H           -2.32870755349661       -1.63336448101472        0.02334836825165
H           -3.19878808811387       -0.43838990470281       -0.93052105490999
H           -1.70042451970832        1.35846707136479       -0.04436411173757
H           -0.84267340549278        0.15808684813796        0.91590632540247
H           -0.15538686410458       -1.03054637676794       -1.16563719459175
H           -1.06518679958578        0.11669996524069       -2.13052734471786
H            1.28768552771241        0.71248814743586       -2.20373717158843
H            0.38635999470207        1.97051214709496       -1.37006806035951
H            2.48925536979300        1.56949231226137       -0.22071641087083
H            1.16386819372391        1.09614732744016        0.82604292032346
H            1.53610015853148       -1.29481863795980        0.24007666820674
H            2.81215674603246       -0.83160713882158       -0.88053223015078
H            2.84697272991698       -0.36075114991651        2.14718074332082
H            4.13108542741994        0.11499299522972        1.03658947847882
H            3.76789009022707       -1.59254293148525        1.28537661438093
26
 energy: -26.320809470381 gnorm: 0.002209731871 xtb: 6.6.1 (8d0f1dd)
C           -3.53608654581075       -0.28755629565547        1.18812022417967
C           -2.63629117055752       -0.58220407861110       -0.00450871032991
C           -1.39559369168209        0.30714511860002       -0.01399480872839
C           -0.48689831054564        0.01119430984327       -1.20440132756303
C            0.73164623007164        0.93238124673978       -1.28126410143596
C            1.68990827468720        0.82802846998651       -0.09411444895139
C            2.31889427091348       -0.55499268223603        0.05711386009803
C            3.32674020444872       -0.59774369392029        1.19737775183288
H           -3.00105915753085       -0.45168017052079        2.12156599300503
H           -4.41121293164369       -0.93380318138111        1.17777932723130
H           -3.87399960660351        0.74663408414458        1.16637116684621
H           -2.32675417440520       -1.63014648186248        0.02589211389654
H           -3.19857192346024       -0.43118046090007       -0.92954753487740
H           -1.70288326509181        1.35566022731346       -0.04770996921788
H           -0.84696339925493        0.14988460670282        0.91642118218002
H           -0.15932228882440       -1.02917238082729       -1.16085598368540
H           -1.06410026001677        0.12909719993749       -2.12607388901612
H            1.28286695888726        0.70218499603076       -2.19736241884052
H            0.38513038707303        1.96673714581970       -1.35818401735405
H            2.48792035995947        1.56325028528293       -0.23213966684908
H            1.16585135177981        1.09014901073752        0.82676434023648
H            1.53925247053432       -1.29432976215768        0.24859734381958
H            2.81510822987850       -0.82727052788249       -0.87795888170517
H            2.84459262467932       -0.35594347217783        2.14265329162224
H            4.12855124846589        0.11888923402026        1.03065131910606
H            3.76594811404875       -1.58955074702647        1.28194484450026
26
 energy: -26.320820608235 gnorm: 0.000567790472 xtb: 6.6.1 (8d0f1dd)
C           -3.53721470120638       -0.28770027636993        1.18764218706545
C           -2.63716899096917       -0.58229403937912       -0.00588528110741
C           -1.39638898156957        0.30715759753701       -0.01320977840048
C           -0.48805938022143        0.01137467881931       -1.20399662470872
C            0.73144756949726        0.93178181516930       -1.28057349104398
C            1.69076099974062        0.82703821421844       -0.09380953231885
C            2.31954774734531       -0.55614369714977        0.05698175300245
C            3.32861168369973       -0.59667866321124        1.19764188502968
H           -3.00106024907368       -0.45210029765967        2.12010799667831
H           -4.41228595275803       -0.93352443913449        1.17715295590346
H           -3.87372116047634        0.74669048469127        1.16565647800064
H           -2.32796507164256       -1.62989984399144        0.02383277969730
H           -3.19888605528191       -0.42994964280145       -0.93051145022417
H           -1.70313407464407        1.35546855070979       -0.04596018832701
H           -0.84863689270004        0.14854836273238        0.91708386873115
H           -0.16200643899379       -1.02920201660041       -1.16174873177683
H           -1.06526439839812        0.13162489708340       -2.12479155392869
H            1.28197938895577        0.70129261896237       -2.19647681229280
H            0.38518971421812        1.96584536451693       -1.35647859460027
H            2.48863509999470        1.56133494957285       -0.23380613167188
H            1.16831465953852        1.08981732233645        0.82749109653003
H            1.54093293945553       -1.29555934827725        0.25007406172547
H            2.81540784362073       -0.82869819402344       -0.87769811702783
H            2.84618832351101       -0.35310431019563        2.14208835804410
H            4.12921193874160        0.12045855835622        1.02884685352384
H            3.76823843961621       -1.58791664591188        1.28348301349703
26
 energy: -26.320832302292 gnorm: 0.002109550782 xtb: 6.6.1 (8d0f1dd)
C           -3.54117794263613       -0.28831752490984        1.18604850013832
C           -2.64062767726926       -0.58182151646595       -0.00895586579475
C           -1.39857081188003        0.30634650231653       -0.01113760360422
C           -0.49094119084642        0.01224798615288       -1.20304117275660
C            0.73108606681318        0.93025356553844       -1.27892094926019
C            1.69334069753364        0.82393915869442       -0.09372205307223
C            2.32206564623223       -0.55924885216123        0.05772946294790
C            3.33447582435523       -0.59345943901780        1.19791823909052
H           -3.00313805881900       -0.45414483438959        2.11686530083516
H           -4.41685360255626       -0.93269896050294        1.17551867809710
H           -3.87483863572000        0.74674834909068        1.16463391079854
H           -2.33295680157046       -1.62950373087320        0.01751272324463
H           -3.20083654560999       -0.42581643795027       -0.93336764099884
H           -1.70357867821616        1.35493108698028       -0.04014090822038
H           -0.85244443581787        0.14427238735823        0.91921055515276
H           -0.16890124959824       -1.02953338418252       -1.16500941515323
H           -1.06879730986022        0.13780444817465       -2.12213775843000
H            1.28012507722235        0.69998376981405       -2.19516534706830
H            0.38594608967618        1.96435475205377       -1.35300338396572
H            2.49148093582428        1.55648461144288       -0.23751192101542
H            1.17496630139760        1.08909723736708        0.82902038194277
H            1.54544745689400       -1.29926916993722        0.25460081146944
H            2.81647742396032       -0.83388369845734       -0.87658714965861
H            2.85237398561054       -0.34470924067239        2.14095444481606
H            4.13258075299458        0.12474439114644        1.02322762829595
H            3.77597068188589       -1.58313945661002        1.28859753216935
26
 energy: -26.320837598400 gnorm: 0.001524345609 xtb: 6.6.1 (8d0f1dd)
C           -3.54259985662539       -0.28844518449306        1.18531124583482
C           -2.64203516060761       -0.58120190187187       -0.00953996587282
C           -1.39907064739459        0.30569436394038       -0.01049055409937
C           -0.49154487575392        0.01246117844596       -1.20267248961668
C            0.73106296426193        0.92955732607343       -1.27832640281405
C            1.69401763625703        0.82290259632391       -0.09385615404716
C            2.32307779080001       -0.56001898906966        0.05845450005574
C            3.33643490580009       -0.59210944154255        1.19754905952564
H           -3.00499368679394       -0.45535462164834        2.11625527333316
H           -4.41866095249874       -0.93243213634384        1.17423806117048
H           -3.87610532731138        0.74676242307450        1.16486562503065
H           -2.33543237795837       -1.62939615295370        0.01549811672802
H           -3.20188436554123       -0.42353363121868       -0.93408771996497
H           -1.70330409727782        1.35471009838664       -0.03804081430091
H           -0.85307541954450        0.14201693120467        0.91982006774931
H           -0.17025915426115       -1.02972894345871       -1.16592963792215
H           -1.06959510065294        0.13935058309829       -2.12168264505882
H            1.27955647224481        0.69949122415240       -2.19514058358217
H            0.38659844223849        1.96407574631849       -1.35200889900577
H            2.49240727235473        1.55530126976845       -0.23843596124212
H            1.17638289049778        1.08873983670376        0.82924130979785
H            1.54671533954381       -1.30013841951103        0.25676770195953
H            2.81681682088592       -0.83581856519774       -0.87605696506114
H            2.85534296303433       -0.34171826772396        2.14072930009232
H            4.13432271734944        0.12593745527851        1.02078418666745
H            3.77849880695318       -1.58144277773623        1.28989134464313
26
 energy: -26.320848736114 gnorm: 0.001709517419 xtb: 6.6.1 (8d0f1dd)
C           -3.55172144870402       -0.28895751216739        1.18045262282206
C           -2.65068514007983       -0.57657880559293       -0.01342072392708
C           -1.40123921936973        0.30126333127208       -0.00594953730091
C           -0.49472484592914        0.01278347387531       -1.19997492850040
C            0.73083287250891        0.92509744073226       -1.27465366634969
C            1.69746269161418        0.81700949159404       -0.09425670875805
C            2.32872087518612       -0.56427150698485        0.06332051437461
C            3.34914986667494       -0.58344643662462        1.19449991178713
H           -3.01784233079337       -0.46365889198834        2.11252266241592
H           -4.43010952414046       -0.93053497289030        1.16400778508431
H           -3.88407527037988        0.74711760242720        1.16689257356857
H           -2.35171908882016       -1.62795202279759        0.00255101025562
H           -3.20800624905548       -0.40729919384520       -0.93843177534621
H           -1.69955177921017        1.35293055582942       -0.02447514474419
H           -0.85622894302568        0.12625786915220        0.92362062620633
H           -0.17711632690110       -1.03133648372940       -1.17003871827675
H           -1.07354729474376        0.14716706480292       -2.11842408388087
H            1.27588224596811        0.69548262120781       -2.19456612860387
H            0.39032940379879        1.96186092913766       -1.34610836644656
H            2.49673867189020        1.54878470360893       -0.24339214960579
H            1.18343902730310        1.08614329547261        0.83045104415183
H            1.55405851039654       -1.30441438200103        0.27172431768760
H            2.81728181196082       -0.84717581229577       -0.87263561696286
H            2.87559138578049       -0.32246847487367        2.13903087438076
H            4.14599056009858        0.13297487549303        1.00403620453453
H            3.79376353797197       -1.57111675881434        1.29635440143401
26
 energy: -26.320854234261 gnorm: 0.000855359873 xtb: 6.6.1 (8d0f1dd)
C           -3.55144045170890       -0.28866709391365        1.18057906634467
C           -2.64992991279068       -0.57634185847474       -0.01334630409675
C           -1.40032123748018        0.30121274255953       -0.00586631639373
C           -0.49390372029125        0.01177715189898       -1.19977918460983
C            0.73085658323598        0.92533549321467       -1.27506065512842
C            1.69646972165914        0.81817515153422       -0.09361868710343
C            2.32765935127414       -0.56329880879732        0.06320939877837
C            3.34872166985417       -0.58403930541797        1.19401432691231
H           -3.01793024400171       -0.46379371664213        2.11266145265021
H           -4.42975082662328       -0.93014669119176        1.16314122910194
H           -3.88335360572436        0.74744719727946        1.16720323628042
H           -2.35111342651378       -1.62745741727809        0.00288563413628
H           -3.20701101147838       -0.40689359842065       -0.93811476303159
H           -1.69794693157947        1.35275872512959       -0.02485955781528
H           -0.85552421332923        0.12607575864681        0.92347615162970
H           -0.17511494415887       -1.03170383795977       -1.16824236985906
H           -1.07260951049421        0.14438499332603       -2.11818545598502
H            1.27652817315504        0.69523909691104       -2.19421104808526
H            0.38942321980778        1.96149010378271       -1.34731813367821
H            2.49522624396786        1.55028125209211       -0.24180900186837
H            1.18125360483379        1.08644231472461        0.83046781487795
H            1.55300738053787       -1.30302647752448        0.27180970180325
H            2.81556108251358       -0.84571922316307       -0.87295106530134
H            2.87570540018070       -0.32353564883842        2.13878793549328
H            4.14587257621406        0.13183111483150        1.00385139124659
H            3.79233902894015       -1.57216541830916        1.29441220370137
26
 energy: -26.320866413991 gnorm: 0.000741961919 xtb: 6.6.1 (8d0f1dd)
C           -3.55500681310912       -0.28778927170344        1.17832668954900
C           -2.65172508565439       -0.57333198958294       -0.01561323293275
C           -1.39802217969991        0.29853507692648       -0.00289853331856
C           -0.49238525976930        0.00779539705596       -1.19733322288906
C            0.73065459321815        0.92399190872989       -1.27453068363848
C            1.69450242131030        0.81979351646403       -0.09114858651686
C            2.32624498456715       -0.56168430575000        0.06525822963726
C            3.35401808344297       -0.58177689347204        1.19063110305633
H           -3.02430263042726       -0.46893569946102        2.11074168853837
H           -4.43479204144196       -0.92683198747106        1.15487164020935
H           -3.88363160336600        0.74929656296531        1.16899068516201
H           -2.35749805684654       -1.62540688084796       -0.00332936263039
H           -3.20652954610250       -0.39700895907180       -0.94000205154835
H           -1.68975195205439        1.35136842236176       -0.01880519651244
H           -0.85483581656700        0.11703003189889        0.92574847376612
H           -0.17112501219748       -1.03454333159449       -1.16332277891619
H           -1.07156465107557        0.13730327423085       -2.11531467909966
H            1.27752500672264        0.69239335633738       -2.19214649544585
H            0.38725930813594        1.95893075888174       -1.34926244490171
H            2.49199135478360        1.55286059014322       -0.23800624471032
H            1.17680480424660        1.08680979447248        0.83159890887978
H            1.55244552726655       -1.30008725849033        0.27998167395524
H            2.80845721676343       -0.84595086973882       -0.87289857222702
H            2.88703440869953       -0.31745307576770        2.13723292526709
H            4.15184983271647        0.13134109404237        0.99389044579880
H            3.79505710643808       -1.57098726155872        1.29047662146832
26
 energy: -26.320877759100 gnorm: 0.001226225547 xtb: 6.6.1 (8d0f1dd)
C           -3.56267592138460       -0.28657229796452        1.17334891476914
C           -2.65735774851500       -0.56808696248451       -0.02035922653255
C           -1.39597470551384        0.29262956434900        0.00254232348950
C           -0.49113329347039        0.00233636678442       -1.19274037318690
C            0.73019468105124        0.92068112742568       -1.27220949495071
C            1.69287866915938        0.82027965110760       -0.08753762182688
C            2.32597695824223       -0.56050782633118        0.06994114760478
C            3.36568729408032       -0.57586104791654        1.18477120712849
H           -3.03636269692304       -0.47909482047132        2.10598179622909
H           -4.44612372833147       -0.92014509032798        1.14085042282206
H           -3.88481905335318        0.75257866500853        1.17171304651599
H           -2.37197143527473       -1.62258369903259       -0.01691543911456
H           -3.20799372148409       -0.37841225075831       -0.94453118690034
H           -1.67784869647164        1.34814554174342       -0.00595653897804
H           -0.85606261910425        0.09891598582177        0.93057721130098
H           -0.16784486359997       -1.03919531053115       -1.15780293382336
H           -1.07155184784043        0.12987743184924       -2.10999391716617
H            1.27805411376133        0.68736829809867       -2.18863566756622
H            0.38487515273639        1.95460800753008       -1.34988666975757
H            2.48921986351145        1.55432195116114       -0.23447463744090
H            1.17344558875849        1.08723383413425        0.83411231075163
H            1.55406137872412       -1.29728960254756        0.29649498208237
H            2.79842375541098       -0.84975997421986       -0.87158027090277
H            2.90962998323735       -0.30276482345929        2.13423862149440
H            4.16390749057670        0.13288466680073        0.97419093932979
H            3.80403940201662       -1.56592538576964        1.28699805462877
26
 energy: -26.320885494281 gnorm: 0.000866474296 xtb: 6.6.1 (8d0f1dd)
C           -3.57108776731209       -0.28508057963027        1.16716335232151
C           -2.66481627658420       -0.56276343864278       -0.02649941131682
C           -1.39496884234871        0.28520788307244        0.00853974103032
C           -0.49048213672329       -0.00347384480083       -1.18748456230118
C            0.72923743360974        0.91659496506867       -1.26837552869803
C            1.69203757774182        0.81990639849329       -0.08365161554666
C            2.32664049263668       -0.55989377264189        0.07579020646792
C            3.37959044690455       -0.56831171047182        1.17826284801904
H           -3.04941128372959       -0.49111931966601        2.09961677086977
H           -4.45981038904688       -0.91082693378140        1.12591145487349
H           -3.88473105003015        0.75673826350000        1.17459228446069
H           -2.38987822997203       -1.62026429568400       -0.03366575577828
H           -3.21089392647765       -0.35780394678515       -0.95041489881863
H           -1.66646712334729        1.34372530178842        0.00911164010671
H           -0.85927692301214        0.07770850429034        0.93634962205912
H           -0.16570299085542       -1.04470321074816       -1.15328674262615
H           -1.07220650293719        0.12362779773295       -2.10423493410711
H            1.27783905053513        0.68217290634335       -2.18420755206631
H            0.38246480330075        1.94996986265705       -1.34868046628516
H            2.48762416182040        1.55473353934576       -0.23207125455721
H            1.17214843423474        1.08804766146267        0.83747786505925
H            1.55705980138343       -1.29512627973763        0.31592070794248
H            2.78810412103392       -0.85545599081951       -0.86943827445497
H            2.93608010329430       -0.28473003336103        2.13074887070903
H            4.17772757966482        0.13570763080643        0.95119063012292
H            3.81585343621633       -1.55892535779081        1.28447200251431
26
 energy: -26.320888684390 gnorm: 0.000239658618 xtb: 6.6.1 (8d0f1dd)
C           -3.57414903732645       -0.28418990156101        1.16447481492408
C           -2.66847798469895       -0.56118216696429       -0.02932296297623
C           -1.39540352849178        0.28117250797653        0.01036189814832
C           -0.49016077576986       -0.00580417645268       -1.18535932843510
C            0.72872941989392        0.91497726017351       -1.26623241920789
C            1.69186322841307        0.81956316586106       -0.08183539842750
C            2.32716922297103       -0.55966194939974        0.07865029846328
C            3.38545849127853       -0.56503614486074        1.17547683731032
H           -3.05394544652595       -0.49664703380282        2.09620587135227
H           -4.46628114197469       -0.90483943466481        1.12072994968081
H           -3.88231383778729        0.75921787752219        1.17593120596003
H           -2.39797172720784       -1.61981137125097       -0.04104856410440
H           -3.21267931206784       -0.35014141854021       -0.95297666422107
H           -1.66329869545869        1.34064041186800        0.01466928799701
H           -0.86204221887091        0.06858254313299        0.93839811172513
H           -0.16493326813229       -1.04708254955720       -1.15203953735454
H           -1.07222898133596        0.12146559261802       -2.10217473407092
H            1.27764687169503        0.68095156386645       -2.18222091496702
H            0.38102397288447        1.94820884369159       -1.34692781521903
H            2.48741708248457        1.55448627283575       -0.23165514703401
H            1.17269330130846        1.08884532740929        0.83955337672612
H            1.55871201024306       -1.29428753513085        0.32429218129256
H            2.78409633390453       -0.85805223644883       -0.86796257712532
H            2.94725052323886       -0.27719512399875        2.12895077333467
H            4.18306063194686        0.13711050871817        0.94151809184778
H            3.82143886538606       -1.55562883304056        1.28368036438073
