 Entering Gaussian System
 *********************************************
 Gaussian 98:
 frequency output generated by the xtb code
 *********************************************
                         Standard orientation:
 --------------------------------------------------------------------
  Center     Atomic     Atomic              Coordinates (Angstroms)
  Number     Number      Type              X           Y           Z
 --------------------------------------------------------------------
    1          6             0       -4.440841    0.269338   -0.000016
    2          6             0       -3.149959   -0.539841   -0.008915
    3          6             0       -1.914470    0.357044    0.007763
    4          6             0       -0.617708   -0.448713    0.001303
    5          6             0        0.617683    0.448439    0.001974
    6          6             0        1.914522   -0.357206    0.006507
    7          6             0        3.149853    0.539913   -0.009665
    8          6             0        4.440917   -0.268950    0.000962
    9          1             0       -4.489350    0.920091   -0.870638
   10          1             0       -4.496831    0.889025    0.892532
   11          1             0       -5.306678   -0.388816   -0.015293
   12          1             0       -3.128708   -1.198580    0.862623
   13          1             0       -3.124057   -1.171476   -0.900174
   14          1             0       -1.935278    1.014475   -0.865057
   15          1             0       -1.941339    0.990753    0.897756
   16          1             0       -0.592509   -1.098605    0.879663
   17          1             0       -0.596535   -1.090602   -0.883039
   18          1             0        0.596197    1.092070   -0.881096
   19          1             0        0.592735    1.096600    0.881617
   20          1             0        1.942002   -0.992094    0.895641
   21          1             0        1.934906   -1.013465   -0.867199
   22          1             0        3.124607    1.170990   -0.901334
   23          1             0        3.127674    1.199191    0.861447
   24          1             0        4.496202   -0.888002    0.893994
   25          1             0        5.306603    0.389411   -0.013921
   26          1             0        4.490435   -0.920293   -0.869160
 --------------------------------------------------------------------
     1 basis functions        1 primitive gaussians
     1 alpha electrons        1 beta electrons
 
 Harmonic frequencies (cm**-1), IR intensities (km*mol⁻¹),
 Raman scattering activities (A**4/amu), Raman depolarization ratios,
 reduced masses (AMU), force constants (mDyne/A) and normal coordinates:
                      1                      2                      3
                        a                      a                      a 
 Frequencies --    44.5312                67.1012                80.5328
 Red. masses --     8.9521                 5.0814                 9.2207
 Frc consts  --     0.0000                 0.0000                 0.0000
 IR Inten    --     0.0021                 0.0000                 0.0594
 Raman Activ --     0.0000                 0.0000                 0.0000
 Depolar     --     0.0000                 0.0000                 0.0000
 Atom AN      X      Y      Z        X      Y      Z        X      Y      Z
   1   6     0.00   0.00  -0.46    -0.00   0.00  -0.06    -0.09  -0.42   0.01
   2   6     0.00  -0.00  -0.02    -0.00  -0.01   0.36     0.13  -0.08  -0.01
   3   6    -0.00  -0.00   0.16     0.00   0.00  -0.22    -0.07   0.19  -0.01
   4   6     0.00  -0.00   0.36    -0.00   0.00  -0.07     0.03   0.35  -0.00
   5   6    -0.00   0.00   0.36     0.00   0.00  -0.07     0.03   0.35   0.00
   6   6     0.00   0.00   0.16    -0.00  -0.00  -0.22    -0.07   0.19   0.01
   7   6    -0.00   0.00  -0.02     0.00   0.01   0.36     0.13  -0.08   0.01
   8   6    -0.00  -0.00  -0.46    -0.00  -0.00  -0.06    -0.09  -0.42  -0.01
   9   1     0.06  -0.04  -0.16    -0.02  -0.16  -0.14    -0.08  -0.12   0.00
  10   1    -0.06   0.04  -0.16     0.02   0.17  -0.13    -0.07  -0.13   0.00
  11   1     0.00   0.00  -0.17    -0.00  -0.00   0.13     0.03  -0.19   0.00
  12   1    -0.06   0.03   0.02     0.01   0.15   0.22     0.09  -0.02  -0.00
  13   1     0.06  -0.03   0.02    -0.01  -0.15   0.21     0.08  -0.02  -0.00
  14   1     0.04  -0.01   0.04    -0.04  -0.11  -0.14    -0.05   0.05  -0.01
  15   1    -0.04   0.01   0.04     0.04   0.11  -0.14    -0.05   0.06  -0.00
  16   1    -0.02   0.02   0.12    -0.01   0.03  -0.00     0.02   0.10  -0.00
  17   1     0.02  -0.02   0.12     0.01  -0.03  -0.00     0.02   0.10   0.00
  18   1    -0.02   0.02   0.12    -0.01   0.03  -0.00     0.02   0.10  -0.00
  19   1     0.02  -0.02   0.12     0.01  -0.03  -0.00     0.02   0.10   0.00
  20   1     0.04  -0.01   0.04    -0.04  -0.11  -0.14    -0.05   0.06   0.01
  21   1    -0.04   0.01   0.04     0.04   0.11  -0.14    -0.05   0.05   0.01
  22   1    -0.06   0.03   0.02     0.01   0.15   0.21     0.08  -0.02   0.00
  23   1     0.06  -0.03   0.02    -0.01  -0.15   0.22     0.09  -0.02   0.00
  24   1     0.06  -0.04  -0.16    -0.02  -0.17  -0.13    -0.07  -0.13  -0.00
  25   1    -0.00  -0.00  -0.17     0.00   0.00   0.13     0.03  -0.19  -0.00
  26   1    -0.06   0.04  -0.16     0.02   0.16  -0.14    -0.08  -0.12  -0.00
                      4                      5                      6
                        a                      a                      a 
 Frequencies --   101.4582               128.6532               147.3099
 Red. masses --     7.9729                 5.9168                 7.2005
 Frc consts  --     0.0000                 0.0000                 0.0000
 IR Inten    --     0.0001                 0.0000                 0.0039
 Raman Activ --     0.0000                 0.0000                 0.0000
 Depolar     --     0.0000                 0.0000                 0.0000
 Atom AN      X      Y      Z        X      Y      Z        X      Y      Z
   1   6    -0.00  -0.01  -0.29    -0.00  -0.00   0.00    -0.00  -0.01   0.14
   2   6     0.01  -0.00   0.21     0.00   0.00  -0.16     0.00   0.01  -0.17
   3   6    -0.00   0.00   0.43    -0.00   0.00   0.16    -0.00   0.01  -0.33
   4   6     0.00   0.01   0.03    -0.00  -0.00   0.41    -0.00   0.00   0.35
   5   6     0.00   0.01  -0.03    -0.00  -0.00  -0.41     0.00  -0.01   0.35
   6   6    -0.00   0.00  -0.43    -0.00   0.00  -0.16     0.00  -0.01  -0.33
   7   6     0.01  -0.00  -0.21     0.00   0.00   0.16    -0.00  -0.01  -0.17
   8   6    -0.00  -0.01   0.29    -0.00  -0.00  -0.00     0.00   0.01   0.14
   9   1     0.07  -0.05  -0.13     0.04   0.12   0.09    -0.04   0.04   0.07
  10   1    -0.07   0.05  -0.13    -0.05  -0.13   0.08     0.04  -0.05   0.07
  11   1     0.00  -0.01  -0.12     0.00   0.00  -0.13     0.00  -0.00   0.05
  12   1    -0.07   0.03   0.08    -0.01  -0.08  -0.11     0.05  -0.01  -0.06
  13   1     0.08  -0.03   0.08     0.02   0.08  -0.10    -0.04   0.02  -0.06
  14   1    -0.02   0.08   0.19     0.05   0.01   0.05     0.06  -0.11  -0.18
  15   1     0.02  -0.08   0.18    -0.06  -0.01   0.05    -0.06   0.12  -0.18
  16   1     0.05  -0.05  -0.04     0.05   0.16   0.23    -0.07   0.09   0.17
  17   1    -0.05   0.06  -0.04    -0.05  -0.16   0.23     0.07  -0.09   0.17
  18   1    -0.05   0.06   0.04    -0.05  -0.16  -0.23    -0.07   0.09   0.17
  19   1     0.05  -0.05   0.04     0.05   0.16  -0.23     0.07  -0.09   0.17
  20   1     0.02  -0.08  -0.18    -0.06  -0.00  -0.05     0.06  -0.12  -0.18
  21   1    -0.02   0.08  -0.19     0.05   0.01  -0.05    -0.06   0.11  -0.18
  22   1     0.08  -0.03  -0.08     0.02   0.08   0.10     0.04  -0.02  -0.06
  23   1    -0.07   0.03  -0.08    -0.01  -0.08   0.11    -0.05   0.01  -0.06
  24   1    -0.07   0.05   0.13    -0.05  -0.13  -0.08    -0.04   0.05   0.07
  25   1     0.00  -0.01   0.12     0.00   0.00   0.13    -0.00   0.00   0.05
  26   1     0.07  -0.05   0.13     0.04   0.12  -0.09     0.04  -0.04   0.07
                      7                      8                      9
                        a                      a                      a 
 Frequencies --   199.3553               233.1506               235.3656
 Red. masses --     8.8523                 2.0474                 2.2673
 Frc consts  --     0.0000                 0.0000                 0.0000
 IR Inten    --     0.0000                 0.0115                 0.0000
 Raman Activ --     0.0000                 0.0000                 0.0000
 Depolar     --     0.0000                 0.0000                 0.0000
 Atom AN      X      Y      Z        X      Y      Z        X      Y      Z
   1   6    -0.22  -0.26  -0.01    -0.00  -0.00  -0.03     0.00   0.00  -0.03
   2   6     0.07   0.22   0.01    -0.00  -0.00   0.19    -0.00  -0.00   0.19
   3   6    -0.03   0.37   0.01    -0.00   0.00  -0.09     0.00  -0.00  -0.11
   4   6    -0.12   0.18  -0.01    -0.00   0.00  -0.05     0.00   0.00  -0.09
   5   6     0.12  -0.18  -0.01     0.00  -0.00  -0.05     0.00   0.00   0.09
   6   6     0.03  -0.37   0.01     0.00  -0.00  -0.09    -0.00   0.00   0.11
   7   6    -0.07  -0.22   0.01     0.00   0.00   0.19    -0.00  -0.00  -0.19
   8   6     0.22   0.26  -0.01     0.00   0.00  -0.03    -0.00   0.00   0.03
   9   1    -0.14  -0.08  -0.00     0.20   0.24   0.16     0.20   0.24   0.16
  10   1    -0.14  -0.08  -0.00    -0.21  -0.25   0.15    -0.20  -0.24   0.15
  11   1     0.02  -0.18  -0.00     0.00   0.01  -0.40     0.00   0.01  -0.39
  12   1     0.07   0.06   0.00    -0.00   0.06   0.10    -0.00   0.06   0.10
  13   1     0.07   0.06   0.00     0.00  -0.06   0.10    -0.00  -0.06   0.10
  14   1    -0.01   0.11   0.00    -0.02  -0.05  -0.07    -0.03  -0.06  -0.07
  15   1    -0.00   0.10   0.01     0.02   0.06  -0.07     0.03   0.06  -0.07
  16   1    -0.08   0.05  -0.01    -0.00   0.01  -0.01    -0.02  -0.02  -0.04
  17   1    -0.08   0.05  -0.00     0.00  -0.01  -0.01     0.02   0.02  -0.04
  18   1     0.08  -0.05  -0.00    -0.00   0.01  -0.01     0.02   0.02   0.04
  19   1     0.08  -0.05  -0.01     0.00  -0.01  -0.01    -0.02  -0.02   0.04
  20   1     0.00  -0.10   0.01    -0.02  -0.06  -0.07     0.03   0.06   0.07
  21   1     0.01  -0.11   0.00     0.02   0.06  -0.07    -0.03  -0.06   0.07
  22   1    -0.07  -0.06   0.00    -0.00   0.06   0.10     0.00  -0.06  -0.10
  23   1    -0.07  -0.06   0.00     0.00  -0.06   0.10    -0.00   0.06  -0.10
  24   1     0.14   0.08  -0.00     0.21   0.25   0.15    -0.20  -0.24  -0.15
  25   1    -0.02   0.18   0.00    -0.00  -0.01  -0.40     0.00   0.01   0.39
  26   1     0.14   0.08  -0.01    -0.21  -0.24   0.16     0.20   0.24  -0.16
                     10                     11                     12
                        a                      a                      a 
 Frequencies --   279.0096               341.6869               469.5192
 Red. masses --     9.9365                 8.5993                 9.4123
 Frc consts  --     0.0000                 0.0000                 0.0000
 IR Inten    --     0.0000                 0.3003                 0.1288
 Raman Activ --     0.0000                 0.0000                 0.0000
 Depolar     --     0.0000                 0.0000                 0.0000
 Atom AN      X      Y      Z        X      Y      Z        X      Y      Z
   1   6     0.41  -0.06  -0.00     0.24   0.12   0.00    -0.30   0.05   0.00
   2   6     0.40   0.01   0.00    -0.07  -0.34  -0.01    -0.20   0.03  -0.00
   3   6     0.23   0.15   0.00    -0.21  -0.14  -0.00     0.11  -0.23  -0.00
   4   6     0.05   0.01  -0.00     0.02   0.31   0.00     0.42   0.14   0.00
   5   6    -0.05  -0.01  -0.00     0.02   0.31  -0.00     0.40   0.16  -0.00
   6   6    -0.23  -0.15   0.00    -0.21  -0.14  -0.00     0.09  -0.22   0.00
   7   6    -0.40  -0.01   0.00    -0.07  -0.34   0.01    -0.20   0.01   0.00
   8   6    -0.41   0.06  -0.00     0.24   0.12  -0.00    -0.28   0.05  -0.00
   9   1     0.12  -0.02   0.00     0.16   0.04   0.00    -0.11   0.01  -0.00
  10   1     0.12  -0.02   0.00     0.16   0.05  -0.00    -0.11   0.01   0.00
  11   1     0.12  -0.02  -0.00    -0.03   0.16   0.00    -0.06  -0.02  -0.00
  12   1     0.14   0.01   0.00    -0.04  -0.09   0.00    -0.10   0.01  -0.00
  13   1     0.14   0.01   0.00    -0.04  -0.09  -0.00    -0.10   0.01   0.00
  14   1     0.07   0.04  -0.00    -0.12  -0.04   0.00     0.03  -0.06   0.00
  15   1     0.07   0.04   0.00    -0.12  -0.04  -0.00     0.03  -0.06  -0.00
  16   1     0.00   0.00  -0.00     0.04   0.09  -0.00     0.18   0.04  -0.00
  17   1     0.00   0.01  -0.00     0.04   0.08   0.00     0.18   0.04   0.00
  18   1    -0.00  -0.01  -0.00     0.04   0.08  -0.00     0.17   0.04  -0.00
  19   1    -0.00  -0.00  -0.00     0.04   0.09   0.00     0.17   0.05   0.00
  20   1    -0.07  -0.04   0.00    -0.12  -0.04   0.00     0.02  -0.06   0.00
  21   1    -0.07  -0.04  -0.00    -0.12  -0.04  -0.00     0.02  -0.06  -0.00
  22   1    -0.14  -0.00   0.00    -0.04  -0.09   0.00    -0.10   0.00  -0.00
  23   1    -0.14  -0.01   0.00    -0.04  -0.09  -0.00    -0.10  -0.00   0.00
  24   1    -0.12   0.02   0.00     0.16   0.05   0.00    -0.10   0.01  -0.00
  25   1    -0.12   0.02  -0.00    -0.03   0.16  -0.00    -0.06  -0.01   0.00
  26   1    -0.12   0.02   0.00     0.16   0.04  -0.00    -0.10   0.01   0.00
                     13                     14                     15
                        a                      a                      a 
 Frequencies --   469.6031               769.2123               774.0282
 Red. masses --     8.7178                 1.5890                 1.7858
 Frc consts  --     0.0000                 0.0000                 0.0000
 IR Inten    --     0.0002                15.8382                 0.0024
 Raman Activ --     0.0000                 0.0000                 0.0000
 Depolar     --     0.0000                 0.0000                 0.0000
 Atom AN      X      Y      Z        X      Y      Z        X      Y      Z
   1   6    -0.17  -0.02  -0.00     0.00   0.00  -0.00    -0.00  -0.00   0.01
   2   6     0.05   0.26   0.00     0.00   0.00  -0.05    -0.00  -0.00   0.12
   3   6     0.32  -0.14  -0.00    -0.00   0.00  -0.10     0.00  -0.00   0.13
   4   6     0.20  -0.28  -0.00     0.00   0.00  -0.12     0.00   0.00   0.06
   5   6    -0.23   0.26   0.00    -0.00  -0.00  -0.12     0.00   0.00  -0.06
   6   6    -0.32   0.16  -0.00     0.00  -0.00  -0.10     0.00  -0.00  -0.13
   7   6    -0.03  -0.26   0.00    -0.00  -0.00  -0.05    -0.00  -0.00  -0.12
   8   6     0.19   0.02  -0.00    -0.00  -0.00  -0.00    -0.00  -0.00  -0.01
   9   1    -0.13  -0.02  -0.00    -0.04   0.04   0.03     0.09  -0.07  -0.06
  10   1    -0.13  -0.02   0.00     0.04  -0.04   0.03    -0.09   0.08  -0.06
  11   1     0.03  -0.12  -0.00     0.00  -0.00   0.01     0.00   0.00  -0.04
  12   1     0.00   0.07  -0.00     0.03   0.14   0.09    -0.03  -0.25  -0.16
  13   1     0.00   0.07   0.00    -0.03  -0.14   0.09     0.03   0.25  -0.15
  14   1     0.16  -0.04  -0.00    -0.04   0.23   0.16    -0.01  -0.27  -0.17
  15   1     0.16  -0.03  -0.00     0.03  -0.24   0.15     0.01   0.28  -0.16
  16   1     0.11  -0.07   0.00     0.00   0.30   0.19     0.08  -0.11  -0.07
  17   1     0.11  -0.07  -0.00     0.00  -0.30   0.19    -0.07   0.11  -0.07
  18   1    -0.12   0.07  -0.00    -0.00   0.30   0.19    -0.07   0.11   0.07
  19   1    -0.12   0.07   0.00    -0.00  -0.30   0.19     0.08  -0.11   0.07
  20   1    -0.16   0.04  -0.00    -0.03   0.24   0.15     0.01   0.27   0.16
  21   1    -0.16   0.04  -0.00     0.04  -0.23   0.16    -0.01  -0.27   0.17
  22   1     0.01  -0.07   0.00     0.03   0.14   0.09     0.03   0.25   0.15
  23   1     0.01  -0.07  -0.00    -0.03  -0.14   0.09    -0.03  -0.25   0.16
  24   1     0.14   0.02   0.00    -0.04   0.04   0.03    -0.09   0.08   0.06
  25   1    -0.03   0.12  -0.00    -0.00   0.00   0.01     0.00   0.00   0.04
  26   1     0.14   0.02  -0.00     0.04  -0.04   0.03     0.09  -0.07   0.06
                     16                     17                     18
                        a                      a                      a 
 Frequencies --   795.3594               841.0921               903.9160
 Red. masses --     2.1555                 2.5603                 2.7110
 Frc consts  --     0.0000                 0.0000                 0.0000
 IR Inten    --     3.6529                 0.0005                 2.0223
 Raman Activ --     0.0000                 0.0000                 0.0000
 Depolar     --     0.0000                 0.0000                 0.0000
 Atom AN      X      Y      Z        X      Y      Z        X      Y      Z
   1   6    -0.00   0.00  -0.04     0.00  -0.00   0.08     0.00   0.00  -0.12
   2   6     0.00   0.00  -0.17     0.00  -0.00   0.16    -0.00   0.00  -0.05
   3   6     0.00  -0.00  -0.05    -0.00   0.00  -0.14    -0.00  -0.00   0.22
   4   6     0.00  -0.00   0.14    -0.00   0.00  -0.15    -0.00  -0.00  -0.12
   5   6    -0.00   0.00   0.14    -0.00   0.00   0.15     0.00   0.00  -0.12
   6   6    -0.00   0.00  -0.05     0.00   0.00   0.14     0.00   0.00   0.22
   7   6    -0.00  -0.00  -0.17     0.00  -0.00  -0.16     0.00  -0.00  -0.05
   8   6     0.00  -0.00  -0.04     0.00  -0.00  -0.08    -0.00  -0.00  -0.12
   9   1    -0.14   0.11   0.08     0.18  -0.13  -0.09    -0.20   0.14   0.09
  10   1     0.14  -0.11   0.08    -0.18   0.13  -0.09     0.20  -0.14   0.08
  11   1    -0.00  -0.00   0.07     0.00   0.00  -0.10    -0.00  -0.00   0.11
  12   1    -0.02   0.27   0.16     0.11  -0.18  -0.10    -0.20   0.05   0.03
  13   1     0.02  -0.27   0.15    -0.11   0.19  -0.10     0.20  -0.05   0.03
  14   1     0.11   0.08   0.05    -0.12   0.15   0.08    -0.03  -0.21  -0.10
  15   1    -0.11  -0.08   0.04     0.12  -0.15   0.08     0.03   0.21  -0.09
  16   1    -0.06  -0.21  -0.12    -0.12   0.17   0.09     0.16   0.12   0.05
  17   1     0.06   0.21  -0.12     0.12  -0.17   0.09    -0.16  -0.12   0.05
  18   1    -0.06  -0.21  -0.12     0.12  -0.17  -0.09     0.16   0.12   0.05
  19   1     0.06   0.21  -0.12    -0.12   0.17  -0.09    -0.16  -0.12   0.05
  20   1     0.11   0.08   0.04     0.12  -0.15  -0.08    -0.03  -0.21  -0.09
  21   1    -0.11  -0.08   0.05    -0.12   0.15  -0.08     0.03   0.21  -0.10
  22   1    -0.02   0.27   0.15    -0.11   0.19   0.10    -0.20   0.05   0.03
  23   1     0.02  -0.27   0.16     0.11  -0.18   0.10     0.20  -0.05   0.03
  24   1    -0.14   0.11   0.08    -0.18   0.13   0.09    -0.20   0.14   0.08
  25   1     0.00   0.00   0.07     0.00   0.00   0.10     0.00   0.00   0.11
  26   1     0.14  -0.11   0.08     0.18  -0.13   0.09     0.20  -0.14   0.09
                     19                     20                     21
                        a                      a                      a 
 Frequencies --   933.6644               949.2813               968.3690
 Red. masses --     6.2734                 5.7200                 2.4408
 Frc consts  --     0.0000                 0.0000                 0.0000
 IR Inten    --     6.5730                 0.0010                 0.0013
 Raman Activ --     0.0000                 0.0000                 0.0000
 Depolar     --     0.0000                 0.0000                 0.0000
 Atom AN      X      Y      Z        X      Y      Z        X      Y      Z
   1   6     0.24   0.08   0.00     0.27   0.08   0.00     0.00  -0.00   0.13
   2   6     0.07   0.21   0.00     0.04   0.19   0.00     0.00   0.00  -0.08
   3   6    -0.11  -0.30  -0.00    -0.19  -0.22  -0.00    -0.00  -0.00  -0.08
   4   6    -0.11   0.10  -0.00    -0.09   0.04   0.00     0.00   0.00   0.19
   5   6    -0.11   0.10   0.00     0.09  -0.04   0.00     0.00   0.00  -0.19
   6   6    -0.11  -0.30   0.00     0.19   0.22  -0.00    -0.00  -0.00   0.08
   7   6     0.07   0.21  -0.00    -0.04  -0.19   0.00     0.00   0.00   0.08
   8   6     0.24   0.08   0.00    -0.27  -0.08   0.00     0.00   0.00  -0.13
   9   1    -0.16  -0.02  -0.01    -0.16  -0.02  -0.02     0.18  -0.12  -0.07
  10   1    -0.16  -0.02   0.01    -0.16  -0.02   0.01    -0.18   0.12  -0.07
  11   1     0.29  -0.29  -0.00     0.31  -0.29  -0.00     0.00  -0.00  -0.09
  12   1    -0.08   0.05   0.00    -0.09   0.05   0.00     0.23   0.07   0.03
  13   1    -0.08   0.05   0.00    -0.09   0.05  -0.00    -0.24  -0.07   0.02
  14   1    -0.06  -0.08  -0.00    -0.10  -0.06  -0.00     0.23   0.07   0.03
  15   1    -0.06  -0.08  -0.00    -0.10  -0.06  -0.00    -0.24  -0.08   0.03
  16   1     0.01   0.03   0.00    -0.03   0.01  -0.00     0.10  -0.15  -0.07
  17   1     0.01   0.02   0.00    -0.03   0.01   0.00    -0.10   0.15  -0.07
  18   1     0.01   0.02  -0.00     0.03  -0.01   0.00    -0.10   0.15   0.07
  19   1     0.01   0.03  -0.00     0.03  -0.01  -0.00     0.10  -0.15   0.07
  20   1    -0.06  -0.08   0.00     0.10   0.06  -0.00    -0.24  -0.08  -0.03
  21   1    -0.06  -0.08   0.00     0.11   0.06  -0.00     0.23   0.07  -0.03
  22   1    -0.08   0.05  -0.00     0.09  -0.05  -0.00    -0.24  -0.07  -0.02
  23   1    -0.08   0.05  -0.00     0.09  -0.05   0.00     0.23   0.07  -0.03
  24   1    -0.16  -0.02  -0.01     0.16   0.03   0.01    -0.18   0.12   0.07
  25   1     0.29  -0.29   0.00    -0.31   0.29  -0.00     0.01  -0.00   0.09
  26   1    -0.16  -0.02   0.01     0.16   0.02  -0.02     0.18  -0.12   0.07
                     22                     23                     24
                        a                      a                      a 
 Frequencies --  1020.2594              1044.6482              1074.9701
 Red. masses --     1.6762                10.0979                10.1210
 Frc consts  --     0.0000                 0.0000                 0.0000
 IR Inten    --     0.4183                 0.0007                 0.6520
 Raman Activ --     0.0000                 0.0000                 0.0000
 Depolar     --     0.0000                 0.0000                 0.0000
 Atom AN      X      Y      Z        X      Y      Z        X      Y      Z
   1   6     0.00  -0.00   0.10     0.14  -0.19  -0.00     0.24  -0.15  -0.00
   2   6    -0.00   0.01  -0.12    -0.14   0.21   0.01    -0.27   0.14   0.00
   3   6    -0.01   0.00   0.08    -0.26   0.10  -0.00    -0.26   0.22   0.00
   4   6    -0.00  -0.01  -0.03    -0.14  -0.44  -0.00     0.29  -0.20  -0.00
   5   6     0.00   0.01  -0.03     0.14   0.44  -0.00     0.29  -0.20   0.00
   6   6     0.01  -0.00   0.08     0.26  -0.10  -0.00    -0.26   0.22  -0.00
   7   6     0.00  -0.01  -0.12     0.14  -0.21   0.01    -0.27   0.14  -0.00
   8   6    -0.00   0.00   0.10    -0.14   0.19  -0.00     0.24  -0.15   0.00
   9   1     0.12  -0.08  -0.04     0.14  -0.03   0.01     0.07  -0.05  -0.00
  10   1    -0.11   0.08  -0.04     0.14  -0.04  -0.00     0.07  -0.05   0.00
  11   1     0.00   0.00  -0.06    -0.04   0.06   0.00     0.07  -0.05  -0.00
  12   1     0.17   0.10   0.04     0.03   0.06   0.00    -0.09   0.04   0.00
  13   1    -0.17  -0.09   0.03     0.04   0.07  -0.00    -0.09   0.04  -0.00
  14   1     0.27  -0.05  -0.03     0.01   0.03   0.00    -0.09   0.06   0.00
  15   1    -0.27   0.05  -0.03     0.03   0.03   0.00    -0.09   0.06  -0.00
  16   1     0.31   0.03   0.01    -0.02  -0.11  -0.00     0.08  -0.06  -0.00
  17   1    -0.31  -0.04   0.01     0.00  -0.11  -0.00     0.08  -0.06   0.00
  18   1     0.31   0.04   0.01    -0.00   0.11   0.00     0.08  -0.06  -0.00
  19   1    -0.31  -0.03   0.01     0.02   0.11  -0.00     0.07  -0.06   0.00
  20   1     0.27  -0.05  -0.03    -0.03  -0.03   0.00    -0.09   0.06   0.00
  21   1    -0.27   0.05  -0.03    -0.01  -0.03   0.00    -0.09   0.06  -0.00
  22   1     0.17   0.09   0.03    -0.04  -0.07  -0.00    -0.09   0.04   0.00
  23   1    -0.17  -0.10   0.04    -0.03  -0.06   0.00    -0.09   0.04  -0.00
  24   1     0.11  -0.08  -0.04    -0.14   0.03  -0.00     0.07  -0.05  -0.00
  25   1    -0.00  -0.00  -0.06     0.04  -0.06   0.00     0.07  -0.05   0.00
  26   1    -0.11   0.08  -0.04    -0.14   0.03   0.01     0.07  -0.05   0.00
                     25                     26                     27
                        a                      a                      a 
 Frequencies --  1097.7822              1105.6175              1109.1230
 Red. masses --     7.7695                 7.5432                 8.9046
 Frc consts  --     0.0000                 0.0000                 0.0000
 IR Inten    --     4.5454                 0.0000                 0.0001
 Raman Activ --     0.0000                 0.0000                 0.0000
 Depolar     --     0.0000                 0.0000                 0.0000
 Atom AN      X      Y      Z        X      Y      Z        X      Y      Z
   1   6     0.09  -0.28  -0.00     0.14  -0.15  -0.00    -0.18   0.15   0.00
   2   6    -0.20   0.28   0.00    -0.28   0.02  -0.00     0.27  -0.10  -0.00
   3   6     0.09  -0.20  -0.00     0.32  -0.06   0.00     0.03  -0.15  -0.00
   4   6    -0.19   0.14   0.00    -0.25   0.11   0.00    -0.41  -0.19  -0.00
   5   6    -0.19   0.14   0.00     0.25  -0.11   0.00     0.41   0.19  -0.00
   6   6     0.09  -0.20   0.00    -0.32   0.06   0.00    -0.03   0.15  -0.00
   7   6    -0.20   0.28  -0.00     0.28  -0.02  -0.00    -0.27   0.10  -0.00
   8   6     0.09  -0.28   0.00    -0.14   0.15  -0.00     0.18  -0.15   0.00
   9   1     0.20  -0.04   0.01     0.07  -0.04  -0.00    -0.07   0.04   0.00
  10   1     0.20  -0.04  -0.01     0.07  -0.04   0.00    -0.07   0.04  -0.00
  11   1    -0.11   0.12   0.00     0.02  -0.02  -0.00    -0.03   0.02   0.00
  12   1    -0.01   0.07  -0.00    -0.18  -0.00  -0.00     0.12  -0.03  -0.00
  13   1    -0.01   0.07   0.00    -0.18  -0.00   0.00     0.12  -0.03   0.00
  14   1     0.17  -0.04   0.00     0.18  -0.01   0.00     0.04  -0.05  -0.01
  15   1     0.17  -0.04  -0.00     0.18  -0.01  -0.00     0.04  -0.05   0.01
  16   1     0.05   0.04   0.00    -0.17   0.02   0.00    -0.20  -0.06  -0.00
  17   1     0.05   0.04  -0.00    -0.17   0.02   0.00    -0.20  -0.06   0.00
  18   1     0.05   0.04   0.00     0.17  -0.02   0.00     0.20   0.06   0.00
  19   1     0.05   0.04  -0.00     0.17  -0.03   0.00     0.20   0.06  -0.00
  20   1     0.17  -0.04   0.00    -0.18   0.01  -0.00    -0.04   0.05   0.01
  21   1     0.17  -0.04  -0.00    -0.18   0.01   0.00    -0.04   0.05  -0.01
  22   1    -0.01   0.07  -0.00     0.18   0.00   0.00    -0.12   0.03   0.00
  23   1    -0.01   0.07   0.00     0.18   0.00  -0.00    -0.12   0.03  -0.00
  24   1     0.20  -0.04   0.01    -0.07   0.04   0.00     0.07  -0.04  -0.00
  25   1    -0.11   0.12  -0.00    -0.02   0.02  -0.00     0.03  -0.02   0.00
  26   1     0.20  -0.04  -0.01    -0.07   0.04  -0.00     0.07  -0.04   0.00
                     28                     29                     30
                        a                      a                      a 
 Frequencies --  1123.0155              1145.8823              1198.9937
 Red. masses --     7.2994                 8.6497                 6.7118
 Frc consts  --     0.0000                 0.0000                 0.0000
 IR Inten    --     3.9871                 0.0002                 0.0001
 Raman Activ --     0.0000                 0.0000                 0.0000
 Depolar     --     0.0000                 0.0000                 0.0000
 Atom AN      X      Y      Z        X      Y      Z        X      Y      Z
   1   6    -0.14  -0.00  -0.00    -0.07  -0.16  -0.00     0.00  -0.00   0.17
   2   6     0.27   0.20   0.00     0.09   0.32   0.00    -0.00  -0.00  -0.26
   3   6    -0.34  -0.16  -0.00    -0.07  -0.35  -0.00    -0.00   0.00   0.28
   4   6     0.07  -0.08  -0.00    -0.03   0.28   0.00    -0.00  -0.00  -0.29
   5   6     0.07  -0.08   0.00     0.03  -0.28   0.00    -0.00  -0.00   0.29
   6   6    -0.34  -0.16   0.00     0.07   0.35  -0.00    -0.00   0.00  -0.28
   7   6     0.27   0.20  -0.00    -0.09  -0.32   0.00    -0.00  -0.00   0.26
   8   6    -0.14  -0.00  -0.00     0.07   0.16  -0.00     0.00  -0.00  -0.17
   9   1     0.06   0.03   0.01     0.15  -0.00   0.02     0.13  -0.10  -0.04
  10   1     0.05   0.03  -0.01     0.15   0.00  -0.02    -0.13   0.10  -0.04
  11   1    -0.12   0.11   0.00    -0.15   0.14   0.00     0.00  -0.00  -0.07
  12   1     0.24   0.06   0.00     0.12   0.08  -0.00     0.00   0.15   0.05
  13   1     0.24   0.06   0.00     0.12   0.08   0.00    -0.00  -0.16   0.05
  14   1    -0.10  -0.05  -0.00    -0.01  -0.09   0.00     0.04  -0.16  -0.06
  15   1    -0.11  -0.04  -0.00    -0.01  -0.08  -0.00    -0.03   0.16  -0.05
  16   1     0.13  -0.02  -0.00     0.01   0.06  -0.00    -0.00   0.17   0.06
  17   1     0.13  -0.03   0.00     0.01   0.06   0.00     0.01  -0.17   0.06
  18   1     0.13  -0.03  -0.00    -0.01  -0.06   0.00     0.01  -0.17  -0.06
  19   1     0.13  -0.03   0.00    -0.01  -0.06  -0.00    -0.00   0.17  -0.06
  20   1    -0.11  -0.04   0.00     0.01   0.08  -0.00    -0.03   0.16   0.05
  21   1    -0.10  -0.05   0.00     0.01   0.09   0.00     0.04  -0.16   0.06
  22   1     0.24   0.06  -0.00    -0.12  -0.08   0.00    -0.00  -0.16  -0.05
  23   1     0.24   0.06  -0.00    -0.12  -0.08  -0.00     0.00   0.15  -0.05
  24   1     0.05   0.03   0.01    -0.15  -0.00  -0.02    -0.13   0.10   0.04
  25   1    -0.12   0.11  -0.00     0.15  -0.14   0.00     0.00  -0.00   0.07
  26   1     0.06   0.03  -0.01    -0.15   0.00   0.02     0.13  -0.10   0.04
                     31                     32                     33
                        a                      a                      a 
 Frequencies --  1217.4003              1240.2113              1249.3117
 Red. masses --     5.3051                 3.5347                 3.8690
 Frc consts  --     0.0000                 0.0000                 0.0000
 IR Inten    --     0.6423                 0.4573                 0.0003
 Raman Activ --     0.0000                 0.0000                 0.0000
 Depolar     --     0.0000                 0.0000                 0.0000
 Atom AN      X      Y      Z        X      Y      Z        X      Y      Z
   1   6    -0.00  -0.00   0.22    -0.04  -0.11   0.01    -0.00  -0.00  -0.20
   2   6     0.00   0.00  -0.31     0.09   0.16  -0.01     0.00   0.00   0.16
   3   6    -0.00  -0.00   0.21     0.14  -0.12   0.00     0.01  -0.00   0.08
   4   6     0.00   0.00  -0.08     0.18   0.05   0.01     0.01   0.00  -0.24
   5   6    -0.00  -0.00  -0.08     0.18   0.05  -0.01     0.01   0.00   0.24
   6   6     0.00   0.00   0.21     0.14  -0.12  -0.00     0.01  -0.00  -0.08
   7   6     0.00  -0.00  -0.31     0.09   0.16   0.01     0.00   0.00  -0.16
   8   6     0.00   0.00   0.22    -0.04  -0.11  -0.01    -0.00  -0.00   0.20
   9   1     0.16  -0.13  -0.06     0.08  -0.00   0.01    -0.13   0.11   0.04
  10   1    -0.16   0.13  -0.05     0.06   0.01  -0.02     0.13  -0.11   0.04
  11   1     0.00   0.00  -0.10    -0.08   0.08  -0.00    -0.00   0.00   0.08
  12   1    -0.10   0.17   0.06    -0.11   0.03  -0.00     0.26  -0.08  -0.02
  13   1     0.10  -0.17   0.05    -0.09   0.02   0.01    -0.27   0.08  -0.02
  14   1    -0.11  -0.12  -0.04    -0.26  -0.03   0.00     0.17  -0.04  -0.01
  15   1     0.11   0.12  -0.04    -0.25  -0.03  -0.00    -0.20   0.03  -0.01
  16   1    -0.17   0.04   0.01    -0.33  -0.01  -0.00     0.12   0.14   0.04
  17   1     0.17  -0.04   0.01    -0.32  -0.00   0.00    -0.15  -0.14   0.04
  18   1    -0.17   0.04   0.01    -0.32  -0.00  -0.00    -0.14  -0.14  -0.04
  19   1     0.17  -0.04   0.01    -0.33  -0.01   0.00     0.12   0.14  -0.04
  20   1    -0.11  -0.12  -0.04    -0.25  -0.03   0.00    -0.20   0.03   0.01
  21   1     0.10   0.12  -0.04    -0.26  -0.03  -0.00     0.17  -0.04   0.01
  22   1    -0.10   0.17   0.05    -0.09   0.02  -0.01    -0.27   0.08   0.02
  23   1     0.09  -0.17   0.06    -0.11   0.03   0.00     0.26  -0.08   0.02
  24   1     0.16  -0.13  -0.05     0.06   0.01   0.02     0.13  -0.11  -0.04
  25   1    -0.00  -0.00  -0.10    -0.08   0.08   0.00    -0.00   0.00  -0.08
  26   1    -0.16   0.13  -0.06     0.08  -0.00  -0.01    -0.13   0.11  -0.04
                     34                     35                     36
                        a                      a                      a 
 Frequencies --  1274.8118              1277.9663              1285.7284
 Red. masses --     1.3174                 2.7538                 3.5878
 Frc consts  --     0.0000                 0.0000                 0.0000
 IR Inten    --     0.0002                 0.0167                 0.0002
 Raman Activ --     0.0000                 0.0000                 0.0000
 Depolar     --     0.0000                 0.0000                 0.0000
 Atom AN      X      Y      Z        X      Y      Z        X      Y      Z
   1   6    -0.00   0.00  -0.01    -0.00  -0.01   0.15    -0.04  -0.11  -0.01
   2   6     0.00   0.00  -0.11     0.01   0.00   0.01     0.18   0.10   0.00
   3   6    -0.00  -0.00  -0.02     0.01   0.00  -0.22     0.20   0.02   0.01
   4   6     0.00  -0.00   0.04     0.00  -0.01   0.09     0.09  -0.12  -0.00
   5   6     0.00  -0.00  -0.04    -0.00   0.01   0.09    -0.09   0.12  -0.00
   6   6    -0.00  -0.00   0.02    -0.01  -0.00  -0.22    -0.20  -0.02   0.01
   7   6     0.00   0.00   0.11    -0.01  -0.00   0.01    -0.18  -0.10   0.00
   8   6    -0.00   0.00   0.01     0.00   0.01   0.15     0.04   0.11  -0.01
   9   1    -0.01   0.00  -0.00     0.09  -0.08  -0.02     0.04   0.02   0.02
  10   1     0.01  -0.00  -0.00    -0.09   0.08  -0.02     0.04   0.01  -0.02
  11   1     0.00   0.00  -0.02    -0.00   0.00  -0.04    -0.10   0.09   0.00
  12   1     0.17   0.06   0.01    -0.39  -0.02  -0.01    -0.21   0.01  -0.01
  13   1    -0.17  -0.06   0.01     0.38   0.02  -0.00    -0.24   0.01   0.00
  14   1    -0.35  -0.00  -0.00     0.02   0.12   0.03    -0.33  -0.02  -0.01
  15   1     0.35   0.00   0.00    -0.04  -0.12   0.03    -0.32  -0.01   0.00
  16   1     0.29  -0.01  -0.01     0.17  -0.04  -0.01    -0.15  -0.02   0.01
  17   1    -0.29   0.01  -0.01    -0.18   0.04  -0.01    -0.14  -0.02  -0.01
  18   1    -0.29   0.01   0.01     0.18  -0.04  -0.01     0.14   0.02  -0.01
  19   1     0.29  -0.01   0.01    -0.17   0.04  -0.01     0.15   0.02   0.01
  20   1     0.35   0.00  -0.00     0.04   0.12   0.03     0.33   0.01   0.00
  21   1    -0.35  -0.00   0.00    -0.02  -0.12   0.03     0.33   0.02  -0.01
  22   1    -0.17  -0.06  -0.01    -0.38  -0.02  -0.00     0.24  -0.01   0.00
  23   1     0.17   0.06  -0.01     0.39   0.02  -0.00     0.21  -0.01  -0.00
  24   1     0.01  -0.00   0.00     0.09  -0.08  -0.02    -0.04  -0.01  -0.02
  25   1    -0.00   0.00   0.02     0.00  -0.00  -0.04     0.10  -0.09   0.00
  26   1    -0.01   0.00   0.00    -0.09   0.08  -0.03    -0.04  -0.02   0.02
                     37                     38                     39
                        a                      a                      a 
 Frequencies --  1293.1991              1296.1349              1327.4728
 Red. masses --     1.9497                 2.2847                 3.9127
 Frc consts  --     0.0000                 0.0000                 0.0000
 IR Inten    --     0.0968                 0.0002                 1.3369
 Raman Activ --     0.0000                 0.0000                 0.0000
 Depolar     --     0.0000                 0.0000                 0.0000
 Atom AN      X      Y      Z        X      Y      Z        X      Y      Z
   1   6    -0.00  -0.00   0.00    -0.00  -0.00   0.08    -0.03  -0.09  -0.00
   2   6     0.00   0.00  -0.11     0.00   0.00   0.06     0.26   0.04   0.00
   3   6     0.00  -0.00  -0.05     0.00   0.00  -0.17     0.10   0.09   0.00
   4   6    -0.00  -0.00   0.17    -0.00  -0.00  -0.14    -0.18  -0.07   0.00
   5   6     0.00   0.00   0.17    -0.00  -0.00   0.14    -0.18  -0.07  -0.00
   6   6    -0.00   0.00  -0.05     0.00   0.00   0.17     0.10   0.09  -0.00
   7   6    -0.00  -0.00  -0.11     0.00   0.00  -0.05     0.26   0.04  -0.00
   8   6     0.00   0.00   0.00    -0.00  -0.00  -0.08    -0.03  -0.09   0.00
   9   1    -0.00  -0.01  -0.01     0.05  -0.04  -0.01     0.00   0.03   0.03
  10   1     0.00   0.01  -0.01    -0.05   0.04  -0.01     0.01   0.03  -0.03
  11   1    -0.00   0.00  -0.02    -0.00   0.00  -0.02    -0.10   0.09   0.00
  12   1     0.12   0.06   0.01    -0.28  -0.04  -0.01    -0.30  -0.00  -0.00
  13   1    -0.12  -0.06   0.01     0.27   0.04  -0.01    -0.31  -0.00  -0.00
  14   1    -0.38   0.01   0.01     0.12   0.09   0.02    -0.15  -0.01  -0.02
  15   1     0.38  -0.01   0.01    -0.13  -0.09   0.02    -0.15  -0.01   0.01
  16   1     0.24  -0.07  -0.02     0.33   0.08   0.01     0.24   0.01   0.01
  17   1    -0.24   0.07  -0.02    -0.33  -0.08   0.02     0.25   0.01  -0.01
  18   1     0.24  -0.07  -0.02    -0.33  -0.08  -0.02     0.25   0.01   0.01
  19   1    -0.24   0.08  -0.02     0.34   0.08  -0.01     0.24   0.01  -0.01
  20   1    -0.38   0.01   0.01    -0.12  -0.09  -0.02    -0.15  -0.01  -0.01
  21   1     0.38  -0.01   0.01     0.12   0.09  -0.02    -0.15  -0.01   0.02
  22   1     0.13   0.06   0.01     0.27   0.04   0.01    -0.31  -0.00   0.00
  23   1    -0.13  -0.06   0.01    -0.28  -0.04   0.01    -0.30  -0.00   0.00
  24   1    -0.00  -0.01  -0.01    -0.05   0.04   0.01     0.01   0.03   0.03
  25   1     0.00  -0.00  -0.02    -0.00   0.00   0.02    -0.10   0.09  -0.00
  26   1     0.00   0.01  -0.01     0.05  -0.04   0.01     0.00   0.03  -0.03
                     40                     41                     42
                        a                      a                      a 
 Frequencies --  1360.4023              1377.9029              1379.6947
 Red. masses --     4.5135                 5.2422                 5.8496
 Frc consts  --     0.0000                 0.0000                 0.0000
 IR Inten    --     0.0000                 0.8543                 0.0003
 Raman Activ --     0.0000                 0.0000                 0.0000
 Depolar     --     0.0000                 0.0000                 0.0000
 Atom AN      X      Y      Z        X      Y      Z        X      Y      Z
   1   6    -0.03  -0.07  -0.00     0.03   0.04   0.00    -0.03  -0.00  -0.00
   2   6     0.30  -0.01   0.00    -0.26   0.02  -0.00     0.15  -0.01   0.00
   3   6    -0.14   0.05   0.00     0.32   0.01   0.00    -0.27  -0.02  -0.00
   4   6    -0.21   0.04   0.00    -0.14  -0.04   0.00     0.35   0.01  -0.00
   5   6     0.21  -0.04   0.00    -0.14  -0.04  -0.00    -0.35  -0.01  -0.00
   6   6     0.14  -0.05  -0.00     0.32   0.01  -0.00     0.27   0.02  -0.00
   7   6    -0.30   0.01   0.00    -0.26   0.02   0.00    -0.15   0.01   0.00
   8   6     0.03   0.07  -0.00     0.03   0.04  -0.00     0.03   0.00  -0.00
   9   1    -0.02   0.04   0.04     0.00  -0.03  -0.02     0.02   0.01   0.01
  10   1    -0.02   0.04  -0.03     0.00  -0.03   0.02     0.02   0.01  -0.01
  11   1    -0.08   0.08   0.00     0.05  -0.04  -0.00    -0.01  -0.00   0.00
  12   1    -0.29  -0.00   0.01     0.22  -0.00  -0.01    -0.11   0.00   0.01
  13   1    -0.30  -0.00  -0.01     0.22  -0.00   0.01    -0.11   0.00  -0.01
  14   1     0.14  -0.00  -0.02    -0.29  -0.01   0.00     0.22   0.01   0.01
  15   1     0.14  -0.01   0.02    -0.29  -0.01  -0.00     0.21   0.01  -0.01
  16   1     0.23   0.00  -0.01     0.13   0.01   0.01    -0.29  -0.01   0.00
  17   1     0.23   0.00   0.01     0.14   0.02  -0.02    -0.29  -0.01  -0.00
  18   1    -0.23  -0.00   0.01     0.14   0.02   0.02     0.29   0.01  -0.00
  19   1    -0.23  -0.00  -0.01     0.13   0.02  -0.01     0.29   0.01   0.00
  20   1    -0.14   0.01   0.02    -0.29  -0.01   0.00    -0.21  -0.01  -0.01
  21   1    -0.14   0.00  -0.02    -0.29  -0.01  -0.00    -0.22  -0.01   0.01
  22   1     0.30   0.00  -0.01     0.22  -0.00  -0.01     0.11  -0.00  -0.01
  23   1     0.29   0.00   0.01     0.22  -0.00   0.01     0.11  -0.00   0.01
  24   1     0.02  -0.04  -0.03     0.00  -0.03  -0.02    -0.02  -0.01  -0.01
  25   1     0.08  -0.08   0.00     0.05  -0.04   0.00     0.01   0.00  -0.00
  26   1     0.02  -0.04   0.04     0.00  -0.03   0.02    -0.02  -0.01   0.01
                     43                     44                     45
                        a                      a                      a 
 Frequencies --  1416.6069              1416.6957              1495.9583
 Red. masses --     3.1835                 3.1929                 1.9252
 Frc consts  --     0.0000                 0.0000                 0.0000
 IR Inten    --     1.6484                 0.0001                 0.1458
 Raman Activ --     0.0000                 0.0000                 0.0000
 Depolar     --     0.0000                 0.0000                 0.0000
 Atom AN      X      Y      Z        X      Y      Z        X      Y      Z
   1   6     0.27  -0.15  -0.00     0.27  -0.15  -0.00     0.00   0.03   0.00
   2   6    -0.06  -0.01  -0.00    -0.06  -0.01  -0.00     0.02  -0.08  -0.00
   3   6     0.00  -0.01  -0.00    -0.00  -0.02  -0.00     0.03  -0.13  -0.00
   4   6     0.01   0.01  -0.00     0.03   0.01   0.00    -0.03   0.12   0.00
   5   6     0.01   0.01  -0.00    -0.03  -0.01   0.00    -0.03   0.12  -0.00
   6   6     0.00  -0.01   0.00     0.00   0.02  -0.00     0.03  -0.13   0.00
   7   6    -0.06  -0.01   0.00     0.06   0.01  -0.00     0.02  -0.09   0.00
   8   6     0.27  -0.15   0.00    -0.27   0.15  -0.00     0.00   0.03  -0.00
   9   1    -0.33   0.10   0.10    -0.33   0.10   0.11    -0.01  -0.08  -0.06
  10   1    -0.33   0.10  -0.10    -0.33   0.11  -0.10    -0.01  -0.08   0.06
  11   1    -0.20   0.29   0.00    -0.21   0.29   0.00    -0.03   0.04  -0.00
  12   1     0.06   0.03   0.02     0.06   0.03   0.02    -0.02   0.15   0.12
  13   1     0.06   0.03  -0.02     0.06   0.03  -0.02    -0.02   0.16  -0.12
  14   1     0.00  -0.01  -0.00     0.01  -0.01  -0.00    -0.02   0.24   0.19
  15   1     0.00  -0.01   0.00     0.01  -0.01  -0.00    -0.02   0.25  -0.18
  16   1    -0.02  -0.00  -0.00    -0.03  -0.00   0.00     0.03  -0.23  -0.17
  17   1    -0.02  -0.00   0.00    -0.03  -0.00   0.00     0.03  -0.23   0.17
  18   1    -0.02  -0.00  -0.00     0.03   0.00  -0.00     0.03  -0.23  -0.17
  19   1    -0.02  -0.00   0.00     0.03   0.00   0.00     0.03  -0.23   0.18
  20   1     0.00  -0.01  -0.00    -0.01   0.01  -0.00    -0.02   0.25   0.18
  21   1     0.01  -0.01   0.00    -0.01   0.01   0.00    -0.02   0.24  -0.19
  22   1     0.06   0.03   0.02    -0.06  -0.03  -0.02    -0.02   0.16   0.12
  23   1     0.06   0.03  -0.02    -0.06  -0.03   0.02    -0.02   0.16  -0.12
  24   1    -0.33   0.11   0.10     0.33  -0.10  -0.10    -0.01  -0.08  -0.06
  25   1    -0.21   0.30  -0.00     0.20  -0.29   0.00    -0.03   0.04   0.00
  26   1    -0.33   0.10  -0.11     0.33  -0.10   0.10    -0.01  -0.08   0.06
                     46                     47                     48
                        a                      a                      a 
 Frequencies --  1496.1057              1498.8311              1499.6215
 Red. masses --     1.8694                 1.9749                 1.8225
 Frc consts  --     0.0000                 0.0000                 0.0000
 IR Inten    --     0.0000                 0.0011                 0.2006
 Raman Activ --     0.0000                 0.0000                 0.0000
 Depolar     --     0.0000                 0.0000                 0.0000
 Atom AN      X      Y      Z        X      Y      Z        X      Y      Z
   1   6     0.00  -0.02  -0.00     0.01   0.04   0.00     0.01  -0.02   0.00
   2   6     0.01   0.12   0.00     0.03  -0.10  -0.00     0.01   0.15   0.00
   3   6    -0.02  -0.07  -0.00     0.01  -0.17  -0.00    -0.01  -0.12  -0.00
   4   6    -0.02  -0.14  -0.00    -0.02  -0.03  -0.00    -0.00  -0.03  -0.00
   5   6     0.02   0.14  -0.00     0.02   0.03  -0.00    -0.00  -0.03   0.00
   6   6     0.02   0.07  -0.00    -0.01   0.17  -0.00    -0.01  -0.12   0.00
   7   6    -0.01  -0.11   0.00    -0.03   0.10  -0.00     0.01   0.15  -0.00
   8   6    -0.00   0.02   0.00    -0.01  -0.04   0.00     0.01  -0.02  -0.00
   9   1    -0.01   0.05   0.04    -0.02  -0.11  -0.08    -0.01   0.04   0.03
  10   1    -0.01   0.06  -0.04    -0.01  -0.11   0.08    -0.01   0.05  -0.03
  11   1     0.01  -0.01  -0.00    -0.04   0.05  -0.00     0.00   0.00  -0.00
  12   1     0.00  -0.23  -0.18    -0.02   0.19   0.15     0.00  -0.29  -0.23
  13   1     0.00  -0.24   0.17    -0.02   0.20  -0.14    -0.00  -0.30   0.22
  14   1     0.01   0.12   0.09    -0.02   0.30   0.23     0.00   0.24   0.18
  15   1     0.02   0.13  -0.09    -0.01   0.30  -0.22     0.00   0.24  -0.17
  16   1     0.01   0.28   0.21     0.01   0.05   0.04     0.01   0.03   0.03
  17   1     0.00   0.28  -0.21     0.01   0.05  -0.04     0.01   0.03  -0.02
  18   1    -0.01  -0.27  -0.20    -0.01  -0.05  -0.04     0.01   0.03   0.02
  19   1    -0.01  -0.27   0.20    -0.01  -0.05   0.04     0.01   0.03  -0.03
  20   1    -0.01  -0.13  -0.09     0.01  -0.30  -0.22     0.00   0.24   0.17
  21   1    -0.01  -0.13   0.10     0.02  -0.30   0.23     0.00   0.24  -0.18
  22   1    -0.00   0.23   0.17     0.02  -0.20  -0.15    -0.00  -0.30  -0.22
  23   1    -0.00   0.23  -0.17     0.02  -0.20   0.15     0.00  -0.29   0.23
  24   1     0.01  -0.06  -0.04     0.01   0.11   0.08    -0.01   0.05   0.03
  25   1    -0.01   0.01  -0.00     0.04  -0.05  -0.00     0.00   0.00   0.00
  26   1     0.01  -0.05   0.04     0.02   0.11  -0.08    -0.02   0.04  -0.03
                     49                     50                     51
                        a                      a                      a 
 Frequencies --  1502.0516              1504.7508              1505.1148
 Red. masses --     2.0237                 1.7802                 1.5341
 Frc consts  --     0.0000                 0.0000                 0.0000
 IR Inten    --     0.5568                 0.0372                 4.8053
 Raman Activ --     0.0000                 0.0000                 0.0000
 Depolar     --     0.0000                 0.0000                 0.0000
 Atom AN      X      Y      Z        X      Y      Z        X      Y      Z
   1   6    -0.01  -0.03  -0.00     0.02   0.01   0.01    -0.00  -0.00   0.15
   2   6    -0.02   0.08   0.00     0.01   0.12   0.00    -0.00  -0.01   0.03
   3   6     0.01   0.10   0.00    -0.00  -0.08  -0.00     0.00   0.01  -0.00
   4   6    -0.01   0.17   0.00     0.00   0.12   0.00     0.00  -0.01  -0.00
   5   6    -0.01   0.17  -0.00    -0.00  -0.12   0.00    -0.00   0.01  -0.00
   6   6     0.01   0.10  -0.00     0.00   0.08  -0.00    -0.00  -0.01  -0.00
   7   6    -0.02   0.08  -0.00    -0.01  -0.12   0.01     0.00   0.01   0.03
   8   6    -0.01  -0.03   0.00    -0.02  -0.01   0.02     0.00   0.00   0.15
   9   1     0.01   0.08   0.06    -0.05  -0.04  -0.03    -0.31  -0.11  -0.06
  10   1     0.01   0.08  -0.06    -0.00  -0.03   0.02     0.31   0.12  -0.05
  11   1     0.03  -0.03   0.00    -0.02   0.04  -0.04     0.00   0.01  -0.51
  12   1     0.01  -0.15  -0.12    -0.00  -0.22  -0.17     0.01   0.01   0.01
  13   1     0.01  -0.15   0.11    -0.01  -0.22   0.16    -0.01   0.03  -0.01
  14   1     0.00  -0.15  -0.12    -0.01   0.17   0.13     0.01  -0.02  -0.01
  15   1     0.00  -0.16   0.12    -0.01   0.17  -0.12    -0.01  -0.02   0.01
  16   1     0.02  -0.30  -0.23     0.01  -0.26  -0.19    -0.00   0.02   0.02
  17   1     0.02  -0.30   0.22     0.01  -0.26   0.19     0.00   0.02  -0.02
  18   1     0.02  -0.30  -0.23    -0.01   0.26   0.19    -0.00  -0.02  -0.02
  19   1     0.02  -0.30   0.23    -0.01   0.26  -0.19     0.00  -0.02   0.02
  20   1     0.00  -0.16  -0.12     0.01  -0.17  -0.12     0.01   0.02   0.01
  21   1     0.00  -0.15   0.12     0.01  -0.17   0.13    -0.01   0.02  -0.01
  22   1     0.01  -0.15  -0.11     0.01   0.22   0.16     0.01  -0.03  -0.01
  23   1     0.01  -0.15   0.12     0.00   0.22  -0.17    -0.01  -0.01   0.01
  24   1     0.01   0.08   0.06    -0.01   0.02   0.02    -0.30  -0.12  -0.05
  25   1     0.03  -0.03  -0.00     0.02  -0.04  -0.05    -0.00  -0.01  -0.50
  26   1     0.01   0.08  -0.06     0.05   0.04  -0.03     0.30   0.11  -0.05
                     52                     53                     54
                        a                      a                      a 
 Frequencies --  1505.1333              1508.0688              1508.2514
 Red. masses --     1.5324                 1.6703                 1.6359
 Frc consts  --     0.0000                 0.0000                 0.0000
 IR Inten    --     0.0023                 2.2990                 0.0006
 Raman Activ --     0.0000                 0.0000                 0.0000
 Depolar     --     0.0000                 0.0000                 0.0000
 Atom AN      X      Y      Z        X      Y      Z        X      Y      Z
   1   6    -0.00  -0.00   0.15    -0.07  -0.13  -0.00     0.07   0.13   0.00
   2   6    -0.00   0.00   0.03    -0.03  -0.08  -0.00     0.03   0.06   0.00
   3   6     0.00   0.00  -0.00     0.02  -0.03  -0.00    -0.02   0.04   0.00
   4   6    -0.00   0.00  -0.00    -0.01  -0.01  -0.00     0.01  -0.02  -0.00
   5   6     0.00  -0.00   0.00    -0.01  -0.01   0.00    -0.01   0.02  -0.00
   6   6     0.00   0.00   0.00     0.02  -0.03   0.00     0.02  -0.04   0.00
   7   6    -0.00  -0.00  -0.03    -0.03  -0.08   0.00    -0.03  -0.06   0.00
   8   6    -0.00  -0.00  -0.15    -0.07  -0.13   0.00    -0.07  -0.12   0.00
   9   1    -0.30  -0.11  -0.06     0.08   0.34   0.25    -0.08  -0.34  -0.25
  10   1     0.30   0.11  -0.05     0.08   0.35  -0.24    -0.08  -0.35   0.24
  11   1     0.00   0.01  -0.50     0.13  -0.18  -0.00    -0.13   0.18   0.00
  12   1     0.01  -0.01  -0.00     0.02   0.09   0.08    -0.02  -0.06  -0.05
  13   1    -0.01   0.01   0.00     0.02   0.10  -0.07    -0.02  -0.06   0.05
  14   1     0.01   0.00   0.00    -0.01   0.07   0.05     0.01  -0.10  -0.08
  15   1    -0.01  -0.00   0.00    -0.01   0.07  -0.05     0.01  -0.10   0.07
  16   1    -0.00  -0.00  -0.00     0.00   0.01   0.01    -0.00   0.05   0.04
  17   1     0.00  -0.01   0.00     0.00   0.01  -0.01    -0.00   0.05  -0.04
  18   1     0.00   0.00   0.00     0.00   0.01   0.01     0.00  -0.05  -0.04
  19   1    -0.00   0.00  -0.00     0.00   0.01  -0.01     0.00  -0.05   0.04
  20   1    -0.01  -0.01  -0.01    -0.01   0.07   0.05    -0.01   0.10   0.07
  21   1     0.01  -0.01   0.00    -0.01   0.07  -0.05    -0.01   0.10  -0.07
  22   1    -0.01   0.02   0.00     0.02   0.10   0.07     0.02   0.06   0.05
  23   1     0.01  -0.01  -0.00     0.02   0.09  -0.08     0.02   0.06  -0.05
  24   1     0.31   0.12   0.05     0.08   0.35   0.24     0.08   0.35   0.24
  25   1     0.00   0.01   0.51     0.13  -0.18   0.00     0.13  -0.18   0.00
  26   1    -0.31  -0.11   0.06     0.08   0.34  -0.26     0.08   0.34  -0.25
                     55                     56                     57
                        a                      a                      a 
 Frequencies --  2950.9729              2953.3015              2957.1094
 Red. masses --     1.8853                 1.9204                 1.9605
 Frc consts  --     0.0000                 0.0000                 0.0000
 IR Inten    --     0.0010                 0.2238                 0.0001
 Raman Activ --     0.0000                 0.0000                 0.0000
 Depolar     --     0.0000                 0.0000                 0.0000
 Atom AN      X      Y      Z        X      Y      Z        X      Y      Z
   1   6     0.00   0.00   0.00    -0.00   0.00  -0.00     0.00  -0.00   0.01
   2   6     0.00   0.00  -0.03    -0.00  -0.00   0.09     0.00   0.00  -0.14
   3   6    -0.00  -0.00   0.10     0.00   0.00  -0.16    -0.00  -0.00   0.12
   4   6    -0.00   0.00  -0.17     0.00  -0.00   0.09     0.00   0.00   0.10
   5   6    -0.00   0.00   0.17    -0.00   0.00   0.09     0.00   0.00  -0.10
   6   6    -0.00  -0.00  -0.10    -0.00  -0.00  -0.16    -0.00  -0.00  -0.12
   7   6     0.00   0.00   0.03     0.00   0.00   0.09     0.00   0.00   0.14
   8   6    -0.00  -0.00  -0.00     0.00  -0.00  -0.00     0.00  -0.00  -0.01
   9   1    -0.00   0.00  -0.00     0.00  -0.01   0.01    -0.00   0.02  -0.02
  10   1     0.00  -0.00  -0.00    -0.00   0.01   0.01     0.00  -0.02  -0.02
  11   1    -0.00  -0.00   0.00     0.00   0.00  -0.00    -0.00  -0.00   0.00
  12   1     0.00  -0.05   0.06    -0.00   0.13  -0.16     0.01  -0.20   0.25
  13   1    -0.00   0.05   0.06     0.00  -0.12  -0.17    -0.01   0.19   0.26
  14   1    -0.01   0.16  -0.19     0.01  -0.24   0.30    -0.00   0.17  -0.21
  15   1     0.01  -0.15  -0.20    -0.01   0.23   0.30     0.00  -0.16  -0.21
  16   1     0.01  -0.25   0.32    -0.01   0.13  -0.16    -0.00   0.14  -0.18
  17   1    -0.01   0.25   0.32     0.01  -0.12  -0.16     0.00  -0.14  -0.19
  18   1    -0.01   0.25  -0.32    -0.01   0.12  -0.16     0.00  -0.14   0.19
  19   1     0.01  -0.25  -0.32     0.01  -0.12  -0.16    -0.00   0.14   0.18
  20   1     0.01  -0.15   0.20     0.01  -0.23   0.30     0.01  -0.16   0.21
  21   1    -0.01   0.15   0.19    -0.01   0.24   0.30    -0.00   0.17   0.21
  22   1    -0.00   0.05  -0.06    -0.00   0.12  -0.17    -0.01   0.19  -0.26
  23   1     0.00  -0.05  -0.06     0.00  -0.13  -0.16     0.01  -0.20  -0.25
  24   1     0.00  -0.00   0.00     0.00  -0.01   0.01     0.00  -0.02   0.02
  25   1    -0.00  -0.00  -0.00    -0.00  -0.00  -0.00    -0.00  -0.00  -0.00
  26   1    -0.00   0.00   0.00    -0.00   0.01   0.01    -0.00   0.02   0.02
                     58                     59                     60
                        a                      a                      a 
 Frequencies --  2962.7941              2970.0649              2970.8678
 Red. masses --     2.0026                 2.0215                 1.4625
 Frc consts  --     0.0000                 0.0000                 0.0000
 IR Inten    --     4.0887                 0.0488                 0.0018
 Raman Activ --     0.0000                 0.0000                 0.0000
 Depolar     --     0.0000                 0.0000                 0.0000
 Atom AN      X      Y      Z        X      Y      Z        X      Y      Z
   1   6     0.00  -0.00   0.02     0.00   0.00  -0.02    -0.00  -0.00   0.00
   2   6     0.00   0.00  -0.16    -0.00   0.00   0.15    -0.00   0.06  -0.00
   3   6     0.00  -0.00  -0.02     0.00  -0.02   0.14     0.00  -0.04  -0.00
   4   6     0.00  -0.00   0.13    -0.00   0.01   0.05     0.01  -0.12  -0.00
   5   6    -0.00   0.00   0.13    -0.00   0.02  -0.05    -0.01   0.13   0.00
   6   6    -0.00   0.00  -0.02    -0.00  -0.02  -0.14    -0.00   0.03   0.00
   7   6    -0.00  -0.00  -0.16    -0.00  -0.00  -0.15     0.00  -0.06   0.00
   8   6    -0.00   0.00   0.01     0.00   0.00   0.02     0.00   0.00  -0.00
   9   1    -0.00   0.03  -0.03     0.00  -0.04   0.04    -0.00   0.01  -0.01
  10   1     0.00  -0.03  -0.04    -0.00   0.03   0.04    -0.00   0.00   0.01
  11   1    -0.00  -0.00   0.00    -0.00  -0.00  -0.00     0.01   0.01   0.00
  12   1     0.01  -0.23   0.29    -0.01   0.20  -0.25     0.00  -0.12   0.17
  13   1    -0.01   0.22   0.30     0.01  -0.20  -0.28     0.00  -0.10  -0.16
  14   1     0.00  -0.03   0.03    -0.01   0.22  -0.29     0.00   0.06  -0.08
  15   1    -0.00   0.03   0.04     0.01  -0.15  -0.19    -0.00   0.06   0.10
  16   1    -0.01   0.18  -0.23    -0.00   0.05  -0.06    -0.01   0.23  -0.35
  17   1     0.01  -0.18  -0.23     0.00  -0.09  -0.13    -0.01   0.23   0.36
  18   1    -0.01   0.18  -0.23     0.00  -0.10   0.14     0.01  -0.24   0.37
  19   1     0.01  -0.18  -0.23    -0.00   0.04   0.05     0.01  -0.24  -0.37
  20   1     0.00  -0.03   0.04     0.01  -0.15   0.20    -0.00  -0.04   0.07
  21   1    -0.00   0.03   0.03    -0.01   0.22   0.29    -0.00  -0.05  -0.08
  22   1     0.01  -0.22   0.30     0.01  -0.20   0.27    -0.01   0.11  -0.17
  23   1    -0.01   0.23   0.29    -0.01   0.21   0.26    -0.00   0.11   0.16
  24   1    -0.00   0.03  -0.04    -0.00   0.03  -0.04     0.00  -0.01   0.01
  25   1     0.00   0.00   0.00    -0.00  -0.00   0.00    -0.01  -0.01   0.00
  26   1     0.00  -0.03  -0.03     0.00  -0.04  -0.04     0.00  -0.01  -0.01
                     61                     62                     63
                        a                      a                      a 
 Frequencies --  2970.9502              2974.6336              2975.7492
 Red. masses --     1.4703                 1.4375                 1.4828
 Frc consts  --     0.0000                 0.0000                 0.0000
 IR Inten    --     0.3286                 0.8300                 1.4387
 Raman Activ --     0.0000                 0.0000                 0.0000
 Depolar     --     0.0000                 0.0000                 0.0000
 Atom AN      X      Y      Z        X      Y      Z        X      Y      Z
   1   6     0.00   0.01   0.00     0.00  -0.01   0.00    -0.01  -0.01  -0.00
   2   6    -0.00   0.01  -0.02     0.00  -0.05  -0.01    -0.01   0.12   0.00
   3   6     0.00  -0.11  -0.02    -0.00   0.12  -0.00     0.00  -0.03   0.00
   4   6    -0.00   0.09  -0.01     0.00  -0.05  -0.01     0.00  -0.07   0.00
   5   6    -0.00   0.08   0.01    -0.00   0.05  -0.01     0.00  -0.07   0.00
   6   6     0.00  -0.11   0.02     0.00  -0.12  -0.01     0.00  -0.03   0.00
   7   6    -0.00   0.01   0.02    -0.00   0.05  -0.01    -0.01   0.12  -0.00
   8   6     0.00   0.01  -0.00    -0.00   0.01   0.00    -0.01  -0.01   0.00
   9   1    -0.00  -0.00   0.00     0.00   0.01  -0.01    -0.00   0.01  -0.02
  10   1     0.00  -0.01  -0.02     0.00   0.00   0.01    -0.00   0.01   0.02
  11   1    -0.01  -0.00   0.00    -0.00  -0.00   0.00     0.02   0.02   0.00
  12   1     0.00  -0.06   0.08    -0.00   0.09  -0.13     0.01  -0.23   0.34
  13   1    -0.00   0.00  -0.00    -0.00   0.10   0.15     0.01  -0.23  -0.36
  14   1    -0.01   0.18  -0.28     0.01  -0.25   0.36    -0.00   0.06  -0.10
  15   1    -0.01   0.23   0.36     0.01  -0.22  -0.35    -0.00   0.05   0.09
  16   1     0.01  -0.18   0.27    -0.00   0.09  -0.13    -0.00   0.13  -0.19
  17   1     0.01  -0.15  -0.24    -0.00   0.11   0.16    -0.00   0.12   0.18
  18   1     0.01  -0.14   0.21     0.00  -0.11   0.16    -0.00   0.12  -0.19
  19   1     0.01  -0.16  -0.25     0.00  -0.09  -0.13    -0.00   0.12   0.19
  20   1    -0.01   0.24  -0.37    -0.01   0.22  -0.35    -0.00   0.06  -0.09
  21   1    -0.01   0.18   0.28    -0.01   0.25   0.37    -0.00   0.06   0.09
  22   1    -0.00  -0.01   0.01     0.00  -0.10   0.15     0.01  -0.22   0.35
  23   1     0.00  -0.07  -0.09     0.00  -0.08  -0.13     0.01  -0.24  -0.35
  24   1     0.00  -0.01   0.01    -0.00  -0.00   0.01    -0.00   0.01  -0.02
  25   1    -0.01  -0.00  -0.00     0.00   0.00   0.00     0.02   0.02  -0.00
  26   1    -0.00  -0.00  -0.00    -0.00  -0.01  -0.01    -0.00   0.01   0.02
                     64                     65                     66
                        a                      a                      a 
 Frequencies --  2977.0494              2981.3719              2987.8937
 Red. masses --     2.0551                 1.5100                 1.5275
 Frc consts  --     0.0000                 0.0000                 0.0000
 IR Inten    --   276.5074                 0.2581               216.1045
 Raman Activ --     0.0000                 0.0000                 0.0000
 Depolar     --     0.0000                 0.0000                 0.0000
 Atom AN      X      Y      Z        X      Y      Z        X      Y      Z
   1   6    -0.00  -0.00   0.02    -0.01  -0.02  -0.00    -0.01  -0.02  -0.00
   2   6    -0.00   0.01  -0.09    -0.00   0.12   0.00    -0.00   0.07   0.00
   3   6     0.00  -0.00  -0.13    -0.00   0.07   0.00    -0.00   0.09   0.00
   4   6    -0.00   0.00  -0.15    -0.00   0.04   0.00    -0.00   0.10   0.00
   5   6     0.00  -0.01  -0.15     0.00  -0.04   0.00    -0.00   0.10   0.00
   6   6    -0.00   0.00  -0.13     0.00  -0.07   0.00    -0.00   0.09  -0.00
   7   6    -0.00  -0.00  -0.09     0.00  -0.12   0.00    -0.00   0.07  -0.00
   8   6     0.00   0.00   0.02     0.01   0.02  -0.00    -0.01  -0.02   0.00
   9   1    -0.00   0.03  -0.04    -0.00   0.03  -0.04    -0.00   0.03  -0.04
  10   1     0.00  -0.03  -0.04    -0.00   0.03   0.04    -0.00   0.03   0.04
  11   1     0.00   0.00   0.00     0.04   0.03   0.00     0.04   0.03   0.00
  12   1     0.00  -0.14   0.18     0.01  -0.23   0.34     0.00  -0.13   0.20
  13   1    -0.00   0.11   0.15     0.01  -0.22  -0.35     0.00  -0.13  -0.20
  14   1     0.01  -0.16   0.21     0.00  -0.12   0.18     0.01  -0.15   0.23
  15   1    -0.01   0.18   0.25     0.01  -0.12  -0.19     0.01  -0.15  -0.23
  16   1     0.01  -0.20   0.26     0.00  -0.07   0.11     0.01  -0.18   0.27
  17   1    -0.01   0.18   0.24     0.00  -0.08  -0.12     0.01  -0.17  -0.27
  18   1     0.01  -0.18   0.24    -0.00   0.08  -0.12     0.01  -0.17   0.27
  19   1    -0.01   0.20   0.26    -0.00   0.07   0.11     0.01  -0.17  -0.27
  20   1     0.01  -0.18   0.24    -0.01   0.12  -0.19     0.01  -0.15   0.23
  21   1    -0.01   0.16   0.21    -0.00   0.12   0.18     0.01  -0.15  -0.23
  22   1     0.00  -0.12   0.16    -0.01   0.22  -0.35     0.00  -0.13   0.20
  23   1    -0.00   0.14   0.17    -0.01   0.23   0.34     0.00  -0.13  -0.20
  24   1    -0.00   0.03  -0.04     0.00  -0.03   0.04    -0.00   0.03  -0.04
  25   1    -0.00  -0.00   0.00    -0.04  -0.03   0.00     0.04   0.03  -0.00
  26   1     0.00  -0.03  -0.04     0.00  -0.03  -0.04    -0.00   0.03   0.04
                     67                     68                     69
                        a                      a                      a 
 Frequencies --  3028.9086              3029.1032              3031.2119
 Red. masses --     1.9581                 1.9584                 1.9244
 Frc consts  --     0.0000                 0.0000                 0.0000
 IR Inten    --     0.2068               121.7155                 0.2058
 Raman Activ --     0.0000                 0.0000                 0.0000
 Depolar     --     0.0000                 0.0000                 0.0000
 Atom AN      X      Y      Z        X      Y      Z        X      Y      Z
   1   6    -0.00  -0.01   0.21     0.00   0.01  -0.20    -0.09  -0.18  -0.01
   2   6    -0.00  -0.00   0.03     0.00   0.00  -0.03    -0.00  -0.02  -0.00
   3   6    -0.00  -0.00   0.01     0.00   0.00  -0.01    -0.00  -0.01  -0.00
   4   6     0.00  -0.00   0.00    -0.00   0.00  -0.00     0.00  -0.00  -0.00
   5   6     0.00  -0.00  -0.00     0.00  -0.00  -0.00    -0.00   0.00  -0.00
   6   6    -0.00  -0.00  -0.01    -0.00  -0.00  -0.01     0.00   0.01  -0.00
   7   6    -0.00  -0.00  -0.03    -0.00  -0.00  -0.03     0.00   0.02  -0.00
   8   6    -0.00  -0.01  -0.20    -0.00  -0.01  -0.21     0.09   0.18  -0.01
   9   1    -0.01   0.31  -0.39     0.01  -0.29   0.37    -0.02   0.18  -0.28
  10   1     0.02  -0.28  -0.38    -0.02   0.27   0.36    -0.03   0.18   0.30
  11   1     0.00   0.00   0.03    -0.01  -0.00  -0.03     0.38   0.29   0.01
  12   1     0.00   0.04  -0.05    -0.00  -0.04   0.05    -0.00   0.03  -0.04
  13   1     0.00  -0.03  -0.05    -0.00   0.03   0.05    -0.00   0.03   0.05
  14   1     0.00   0.01  -0.02    -0.00  -0.01   0.02     0.00   0.02  -0.03
  15   1    -0.00  -0.01  -0.01     0.00   0.01   0.02     0.00   0.02   0.03
  16   1    -0.00   0.00  -0.00     0.00  -0.01   0.01    -0.00   0.00  -0.00
  17   1     0.00  -0.00  -0.00    -0.00   0.01   0.01    -0.00   0.00   0.00
  18   1     0.00  -0.00   0.00     0.00  -0.01   0.01     0.00  -0.00   0.00
  19   1    -0.00   0.00   0.00    -0.00   0.01   0.01     0.00  -0.00  -0.00
  20   1    -0.00  -0.01   0.01    -0.00  -0.01   0.02    -0.00  -0.02   0.03
  21   1     0.00   0.01   0.01     0.00   0.01   0.02    -0.00  -0.02  -0.03
  22   1     0.00  -0.03   0.05     0.00  -0.03   0.05     0.00  -0.03   0.05
  23   1    -0.00   0.03   0.05    -0.00   0.04   0.05     0.00  -0.03  -0.04
  24   1     0.02  -0.27   0.37     0.02  -0.28   0.38     0.03  -0.17   0.29
  25   1     0.00   0.00  -0.03     0.01   0.00  -0.03    -0.37  -0.28   0.01
  26   1    -0.01   0.29   0.37    -0.01   0.31   0.39     0.02  -0.17  -0.27
                     70                     71                     72
                        a                      a                      a 
 Frequencies --  3031.4079              3036.8263              3037.2288
 Red. masses --     1.9277                 1.2627                 1.2673
 Frc consts  --     0.0000                 0.0000                 0.0000
 IR Inten    --   122.1022                65.5084                 0.0088
 Raman Activ --     0.0000                 0.0000                 0.0000
 Depolar     --     0.0000                 0.0000                 0.0000
 Atom AN      X      Y      Z        X      Y      Z        X      Y      Z
   1   6    -0.09  -0.18  -0.01     0.10  -0.03  -0.00    -0.11   0.02   0.00
   2   6    -0.00  -0.02  -0.00     0.00  -0.00  -0.00    -0.00   0.00   0.00
   3   6     0.00  -0.01  -0.00    -0.00  -0.00  -0.00     0.00   0.00   0.00
   4   6     0.00  -0.01  -0.00     0.00  -0.00  -0.00    -0.00  -0.00   0.00
   5   6     0.00  -0.01   0.00     0.00  -0.00   0.00     0.00   0.00   0.00
   6   6     0.00  -0.01   0.00    -0.00  -0.00   0.00    -0.00  -0.00   0.00
   7   6    -0.00  -0.02   0.00     0.00  -0.00   0.00     0.00  -0.00   0.00
   8   6    -0.10  -0.18   0.01     0.10  -0.03   0.00     0.11  -0.02   0.00
   9   1    -0.02   0.17  -0.27     0.00   0.21  -0.29    -0.00  -0.20   0.28
  10   1    -0.03   0.17   0.29    -0.00   0.20   0.30    -0.00  -0.20  -0.29
  11   1     0.38   0.28   0.01    -0.38  -0.31  -0.01     0.38   0.31   0.01
  12   1    -0.00   0.03  -0.05     0.00   0.00  -0.01    -0.00  -0.00   0.00
  13   1    -0.00   0.03   0.05     0.00   0.00   0.01    -0.00  -0.00  -0.00
  14   1     0.00   0.02  -0.03     0.00   0.00  -0.01    -0.00  -0.01   0.01
  15   1     0.00   0.02   0.03     0.00   0.00   0.01    -0.00  -0.00  -0.01
  16   1    -0.00   0.01  -0.01    -0.00   0.00  -0.00     0.00   0.00  -0.00
  17   1    -0.00   0.01   0.01    -0.00   0.00   0.00     0.00   0.00   0.00
  18   1    -0.00   0.01  -0.01    -0.00   0.00  -0.00    -0.00  -0.00   0.00
  19   1    -0.00   0.01   0.01    -0.00   0.00   0.00    -0.00  -0.00  -0.00
  20   1     0.00   0.02  -0.03     0.00   0.00  -0.01     0.00   0.01  -0.01
  21   1     0.00   0.02   0.03     0.00   0.00   0.01     0.00   0.01   0.01
  22   1    -0.00   0.03  -0.05     0.00   0.00  -0.01     0.00   0.00  -0.00
  23   1    -0.00   0.03   0.05     0.00   0.00   0.01     0.00   0.00   0.00
  24   1    -0.03   0.17  -0.29    -0.00   0.20  -0.29     0.00   0.20  -0.29
  25   1     0.39   0.29  -0.01    -0.37  -0.31   0.01    -0.38  -0.32   0.01
  26   1    -0.02   0.18   0.28     0.00   0.21   0.28     0.00   0.21   0.28
