 Entering Gaussian System
 *********************************************
 Gaussian 98:
 frequency output generated by the xtb code
 *********************************************
                         Standard orientation:
 --------------------------------------------------------------------
  Center     Atomic     Atomic              Coordinates (Angstroms)
  Number     Number      Type              X           Y           Z
 --------------------------------------------------------------------
    1          6             0       -4.440841    0.269338   -0.000016
    2          6             0       -3.149959   -0.539841   -0.008915
    3          6             0       -1.914470    0.357044    0.007763
    4          6             0       -0.617708   -0.448713    0.001303
    5          6             0        0.617683    0.448439    0.001974
    6          6             0        1.914522   -0.357206    0.006507
    7          6             0        3.149853    0.539913   -0.009665
    8          6             0        4.440917   -0.268950    0.000962
    9          1             0       -4.489350    0.920091   -0.870638
   10          1             0       -4.496831    0.889025    0.892532
   11          1             0       -5.306678   -0.388816   -0.015293
   12          1             0       -3.128708   -1.198580    0.862623
   13          1             0       -3.124057   -1.171476   -0.900174
   14          1             0       -1.935278    1.014475   -0.865057
   15          1             0       -1.941339    0.990753    0.897756
   16          1             0       -0.592509   -1.098605    0.879663
   17          1             0       -0.596535   -1.090602   -0.883039
   18          1             0        0.596197    1.092070   -0.881096
   19          1             0        0.592735    1.096600    0.881617
   20          1             0        1.942002   -0.992094    0.895641
   21          1             0        1.934906   -1.013465   -0.867199
   22          1             0        3.124607    1.170990   -0.901334
   23          1             0        3.127674    1.199191    0.861447
   24          1             0        4.496202   -0.888002    0.893994
   25          1             0        5.306603    0.389411   -0.013921
   26          1             0        4.490435   -0.920293   -0.869160
 --------------------------------------------------------------------
     1 basis functions        1 primitive gaussians
     1 alpha electrons        1 beta electrons
 
 Harmonic frequencies (cm**-1), IR intensities (KM/Mole),
 Raman scattering activities (A**4/amu), Raman depolarization ratios,
 reduced masses (AMU), force constants (mDyne/A) and normal coordinates:
                      1                      2                      3
                        a                      a                      a 
 Frequencies --    44.5312                67.1012                80.5328
 Red. masses --    99.0000                99.0000                99.0000
 Frc consts  --    99.0000                99.0000                99.0000
 IR Inten    --    99.0000                99.0000                99.0000
 Raman Activ --     0.0000                 0.0000                 0.0000
 Depolar     --     0.0000                 0.0000                 0.0000
 Atom AN      X      Y      Z        X      Y      Z        X      Y      Z
   1   6     0.00   0.00  -0.46    -0.00   0.00  -0.06    -0.09  -0.42   0.01
   2   6     0.00  -0.00  -0.02    -0.00  -0.01   0.36     0.13  -0.08  -0.01
   3   6    -0.00  -0.00   0.16     0.00   0.00  -0.22    -0.07   0.19  -0.01
   4   6     0.00  -0.00   0.36    -0.00   0.00  -0.07     0.03   0.35  -0.00
   5   6    -0.00   0.00   0.36     0.00   0.00  -0.07     0.03   0.35   0.00
   6   6     0.00   0.00   0.16    -0.00  -0.00  -0.22    -0.07   0.19   0.01
   7   6    -0.00   0.00  -0.02     0.00   0.01   0.36     0.13  -0.08   0.01
   8   6    -0.00  -0.00  -0.46    -0.00  -0.00  -0.06    -0.09  -0.42  -0.01
   9   1     0.06  -0.04  -0.16    -0.02  -0.16  -0.14    -0.08  -0.12   0.00
  10   1    -0.06   0.04  -0.16     0.02   0.17  -0.13    -0.07  -0.13   0.00
  11   1     0.00   0.00  -0.17    -0.00  -0.00   0.13     0.03  -0.19   0.00
  12   1    -0.06   0.03   0.02     0.01   0.15   0.22     0.09  -0.02  -0.00
  13   1     0.06  -0.03   0.02    -0.01  -0.15   0.21     0.08  -0.02  -0.00
  14   1     0.04  -0.01   0.04    -0.04  -0.11  -0.14    -0.05   0.05  -0.01
  15   1    -0.04   0.01   0.04     0.04   0.11  -0.14    -0.05   0.06  -0.00
  16   1    -0.02   0.02   0.12    -0.01   0.03  -0.00     0.02   0.10  -0.00
  17   1     0.02  -0.02   0.12     0.01  -0.03  -0.00     0.02   0.10   0.00
  18   1    -0.02   0.02   0.12    -0.01   0.03  -0.00     0.02   0.10  -0.00
  19   1     0.02  -0.02   0.12     0.01  -0.03  -0.00     0.02   0.10   0.00
  20   1     0.04  -0.01   0.04    -0.04  -0.11  -0.14    -0.05   0.06   0.01
  21   1    -0.04   0.01   0.04     0.04   0.11  -0.14    -0.05   0.05   0.01
  22   1    -0.06   0.03   0.02     0.01   0.15   0.21     0.08  -0.02   0.00
  23   1     0.06  -0.03   0.02    -0.01  -0.15   0.22     0.09  -0.02   0.00
  24   1     0.06  -0.04  -0.16    -0.02  -0.17  -0.13    -0.07  -0.13  -0.00
  25   1    -0.00  -0.00  -0.17     0.00   0.00   0.13     0.03  -0.19  -0.00
  26   1    -0.06   0.04  -0.16     0.02   0.16  -0.14    -0.08  -0.12  -0.00
                      4                      5                      6
                        a                      a                      a 
 Frequencies --   101.4582               128.6532               147.3099
 Red. masses --    99.0000                99.0000                99.0000
 Frc consts  --    99.0000                99.0000                99.0000
 IR Inten    --    99.0000                99.0000                99.0000
 Raman Activ --     0.0000                 0.0000                 0.0000
 Depolar     --     0.0000                 0.0000                 0.0000
 Atom AN      X      Y      Z        X      Y      Z        X      Y      Z
   1   6    -0.00  -0.01  -0.29    -0.00  -0.00   0.00    -0.00  -0.01   0.14
   2   6     0.01  -0.00   0.21     0.00   0.00  -0.16     0.00   0.01  -0.17
   3   6    -0.00   0.00   0.43    -0.00   0.00   0.16    -0.00   0.01  -0.33
   4   6     0.00   0.01   0.03    -0.00  -0.00   0.41    -0.00   0.00   0.35
   5   6     0.00   0.01  -0.03    -0.00  -0.00  -0.41     0.00  -0.01   0.35
   6   6    -0.00   0.00  -0.43    -0.00   0.00  -0.16     0.00  -0.01  -0.33
   7   6     0.01  -0.00  -0.21     0.00   0.00   0.16    -0.00  -0.01  -0.17
   8   6    -0.00  -0.01   0.29    -0.00  -0.00  -0.00     0.00   0.01   0.14
   9   1     0.07  -0.05  -0.13     0.04   0.12   0.09    -0.04   0.04   0.07
  10   1    -0.07   0.05  -0.13    -0.05  -0.13   0.08     0.04  -0.05   0.07
  11   1     0.00  -0.01  -0.12     0.00   0.00  -0.13     0.00  -0.00   0.05
  12   1    -0.07   0.03   0.08    -0.01  -0.08  -0.11     0.05  -0.01  -0.06
  13   1     0.08  -0.03   0.08     0.02   0.08  -0.10    -0.04   0.02  -0.06
  14   1    -0.02   0.08   0.19     0.05   0.01   0.05     0.06  -0.11  -0.18
  15   1     0.02  -0.08   0.18    -0.06  -0.01   0.05    -0.06   0.12  -0.18
  16   1     0.05  -0.05  -0.04     0.05   0.16   0.23    -0.07   0.09   0.17
  17   1    -0.05   0.06  -0.04    -0.05  -0.16   0.23     0.07  -0.09   0.17
  18   1    -0.05   0.06   0.04    -0.05  -0.16  -0.23    -0.07   0.09   0.17
  19   1     0.05  -0.05   0.04     0.05   0.16  -0.23     0.07  -0.09   0.17
  20   1     0.02  -0.08  -0.18    -0.06  -0.00  -0.05     0.06  -0.12  -0.18
  21   1    -0.02   0.08  -0.19     0.05   0.01  -0.05    -0.06   0.11  -0.18
  22   1     0.08  -0.03  -0.08     0.02   0.08   0.10     0.04  -0.02  -0.06
  23   1    -0.07   0.03  -0.08    -0.01  -0.08   0.11    -0.05   0.01  -0.06
  24   1    -0.07   0.05   0.13    -0.05  -0.13  -0.08    -0.04   0.05   0.07
  25   1     0.00  -0.01   0.12     0.00   0.00   0.13    -0.00   0.00   0.05
  26   1     0.07  -0.05   0.13     0.04   0.12  -0.09     0.04  -0.04   0.07
                      7                      8                      9
                        a                      a                      a 
 Frequencies --   233.1506               235.3656               199.3553
 Red. masses --    99.0000                99.0000                99.0000
 Frc consts  --    99.0000                99.0000                99.0000
 IR Inten    --    99.0000                99.0000                99.0000
 Raman Activ --     0.0000                 0.0000                 0.0000
 Depolar     --     0.0000                 0.0000                 0.0000
 Atom AN      X      Y      Z        X      Y      Z        X      Y      Z
   1   6    -0.00  -0.00  -0.03     0.00   0.00  -0.03    -0.22  -0.26  -0.01
   2   6    -0.00  -0.00   0.19    -0.00  -0.00   0.19     0.07   0.22   0.01
   3   6    -0.00   0.00  -0.09     0.00  -0.00  -0.11    -0.03   0.37   0.01
   4   6    -0.00   0.00  -0.05     0.00   0.00  -0.09    -0.12   0.18  -0.01
   5   6     0.00  -0.00  -0.05     0.00   0.00   0.09     0.12  -0.18  -0.01
   6   6     0.00  -0.00  -0.09    -0.00   0.00   0.11     0.03  -0.37   0.01
   7   6     0.00   0.00   0.19    -0.00  -0.00  -0.19    -0.07  -0.22   0.01
   8   6     0.00   0.00  -0.03    -0.00   0.00   0.03     0.22   0.26  -0.01
   9   1     0.20   0.24   0.16     0.20   0.24   0.16    -0.14  -0.08  -0.00
  10   1    -0.21  -0.25   0.15    -0.20  -0.24   0.15    -0.14  -0.08  -0.00
  11   1     0.00   0.01  -0.40     0.00   0.01  -0.39     0.02  -0.18  -0.00
  12   1    -0.00   0.06   0.10    -0.00   0.06   0.10     0.07   0.06   0.00
  13   1     0.00  -0.06   0.10    -0.00  -0.06   0.10     0.07   0.06   0.00
  14   1    -0.02  -0.05  -0.07    -0.03  -0.06  -0.07    -0.01   0.11   0.00
  15   1     0.02   0.06  -0.07     0.03   0.06  -0.07    -0.00   0.10   0.01
  16   1    -0.00   0.01  -0.01    -0.02  -0.02  -0.04    -0.08   0.05  -0.01
  17   1     0.00  -0.01  -0.01     0.02   0.02  -0.04    -0.08   0.05  -0.00
  18   1    -0.00   0.01  -0.01     0.02   0.02   0.04     0.08  -0.05  -0.00
  19   1     0.00  -0.01  -0.01    -0.02  -0.02   0.04     0.08  -0.05  -0.01
  20   1    -0.02  -0.06  -0.07     0.03   0.06   0.07     0.00  -0.10   0.01
  21   1     0.02   0.06  -0.07    -0.03  -0.06   0.07     0.01  -0.11   0.00
  22   1    -0.00   0.06   0.10     0.00  -0.06  -0.10    -0.07  -0.06   0.00
  23   1     0.00  -0.06   0.10    -0.00   0.06  -0.10    -0.07  -0.06   0.00
  24   1     0.21   0.25   0.15    -0.20  -0.24  -0.15     0.14   0.08  -0.00
  25   1    -0.00  -0.01  -0.40     0.00   0.01   0.39    -0.02   0.18   0.00
  26   1    -0.21  -0.24   0.16     0.20   0.24  -0.16     0.14   0.08  -0.01
                     10                     11                     12
                        a                      a                      a 
 Frequencies --   279.0096               341.6869               469.6031
 Red. masses --    99.0000                99.0000                99.0000
 Frc consts  --    99.0000                99.0000                99.0000
 IR Inten    --    99.0000                99.0000                99.0000
 Raman Activ --     0.0000                 0.0000                 0.0000
 Depolar     --     0.0000                 0.0000                 0.0000
 Atom AN      X      Y      Z        X      Y      Z        X      Y      Z
   1   6     0.41  -0.06  -0.00     0.24   0.12   0.00    -0.17  -0.02  -0.00
   2   6     0.40   0.01   0.00    -0.07  -0.34  -0.01     0.05   0.26   0.00
   3   6     0.23   0.15   0.00    -0.21  -0.14  -0.00     0.32  -0.14  -0.00
   4   6     0.05   0.01  -0.00     0.02   0.31   0.00     0.20  -0.28  -0.00
   5   6    -0.05  -0.01  -0.00     0.02   0.31  -0.00    -0.23   0.26   0.00
   6   6    -0.23  -0.15   0.00    -0.21  -0.14  -0.00    -0.32   0.16  -0.00
   7   6    -0.40  -0.01   0.00    -0.07  -0.34   0.01    -0.03  -0.26   0.00
   8   6    -0.41   0.06  -0.00     0.24   0.12  -0.00     0.19   0.02  -0.00
   9   1     0.12  -0.02   0.00     0.16   0.04   0.00    -0.13  -0.02  -0.00
  10   1     0.12  -0.02   0.00     0.16   0.05  -0.00    -0.13  -0.02   0.00
  11   1     0.12  -0.02  -0.00    -0.03   0.16   0.00     0.03  -0.12  -0.00
  12   1     0.14   0.01   0.00    -0.04  -0.09   0.00     0.00   0.07  -0.00
  13   1     0.14   0.01   0.00    -0.04  -0.09  -0.00     0.00   0.07   0.00
  14   1     0.07   0.04  -0.00    -0.12  -0.04   0.00     0.16  -0.04  -0.00
  15   1     0.07   0.04   0.00    -0.12  -0.04  -0.00     0.16  -0.03  -0.00
  16   1     0.00   0.00  -0.00     0.04   0.09  -0.00     0.11  -0.07   0.00
  17   1     0.00   0.01  -0.00     0.04   0.08   0.00     0.11  -0.07  -0.00
  18   1    -0.00  -0.01  -0.00     0.04   0.08  -0.00    -0.12   0.07  -0.00
  19   1    -0.00  -0.00  -0.00     0.04   0.09   0.00    -0.12   0.07   0.00
  20   1    -0.07  -0.04   0.00    -0.12  -0.04   0.00    -0.16   0.04  -0.00
  21   1    -0.07  -0.04  -0.00    -0.12  -0.04  -0.00    -0.16   0.04  -0.00
  22   1    -0.14  -0.00   0.00    -0.04  -0.09   0.00     0.01  -0.07   0.00
  23   1    -0.14  -0.01   0.00    -0.04  -0.09  -0.00     0.01  -0.07  -0.00
  24   1    -0.12   0.02   0.00     0.16   0.05   0.00     0.14   0.02   0.00
  25   1    -0.12   0.02  -0.00    -0.03   0.16  -0.00    -0.03   0.12  -0.00
  26   1    -0.12   0.02   0.00     0.16   0.04  -0.00     0.14   0.02  -0.00
                     13                     14                     15
                        a                      a                      a 
 Frequencies --   469.5192               769.2123               841.0921
 Red. masses --    99.0000                99.0000                99.0000
 Frc consts  --    99.0000                99.0000                99.0000
 IR Inten    --    99.0000                99.0000                99.0000
 Raman Activ --     0.0000                 0.0000                 0.0000
 Depolar     --     0.0000                 0.0000                 0.0000
 Atom AN      X      Y      Z        X      Y      Z        X      Y      Z
   1   6    -0.30   0.05   0.00     0.00   0.00  -0.00     0.00  -0.00   0.08
   2   6    -0.20   0.03  -0.00     0.00   0.00  -0.05     0.00  -0.00   0.16
   3   6     0.11  -0.23  -0.00    -0.00   0.00  -0.10    -0.00   0.00  -0.14
   4   6     0.42   0.14   0.00     0.00   0.00  -0.12    -0.00   0.00  -0.15
   5   6     0.40   0.16  -0.00    -0.00  -0.00  -0.12    -0.00   0.00   0.15
   6   6     0.09  -0.22   0.00     0.00  -0.00  -0.10     0.00   0.00   0.14
   7   6    -0.20   0.01   0.00    -0.00  -0.00  -0.05     0.00  -0.00  -0.16
   8   6    -0.28   0.05  -0.00    -0.00  -0.00  -0.00     0.00  -0.00  -0.08
   9   1    -0.11   0.01  -0.00    -0.04   0.04   0.03     0.18  -0.13  -0.09
  10   1    -0.11   0.01   0.00     0.04  -0.04   0.03    -0.18   0.13  -0.09
  11   1    -0.06  -0.02  -0.00     0.00  -0.00   0.01     0.00   0.00  -0.10
  12   1    -0.10   0.01  -0.00     0.03   0.14   0.09     0.11  -0.18  -0.10
  13   1    -0.10   0.01   0.00    -0.03  -0.14   0.09    -0.11   0.19  -0.10
  14   1     0.03  -0.06   0.00    -0.04   0.23   0.16    -0.12   0.15   0.08
  15   1     0.03  -0.06  -0.00     0.03  -0.24   0.15     0.12  -0.15   0.08
  16   1     0.18   0.04  -0.00     0.00   0.30   0.19    -0.12   0.17   0.09
  17   1     0.18   0.04   0.00     0.00  -0.30   0.19     0.12  -0.17   0.09
  18   1     0.17   0.04  -0.00    -0.00   0.30   0.19     0.12  -0.17  -0.09
  19   1     0.17   0.05   0.00    -0.00  -0.30   0.19    -0.12   0.17  -0.09
  20   1     0.02  -0.06   0.00    -0.03   0.24   0.15     0.12  -0.15  -0.08
  21   1     0.02  -0.06  -0.00     0.04  -0.23   0.16    -0.12   0.15  -0.08
  22   1    -0.10   0.00  -0.00     0.03   0.14   0.09    -0.11   0.19   0.10
  23   1    -0.10  -0.00   0.00    -0.03  -0.14   0.09     0.11  -0.18   0.10
  24   1    -0.10   0.01  -0.00    -0.04   0.04   0.03    -0.18   0.13   0.09
  25   1    -0.06  -0.01   0.00    -0.00   0.00   0.01     0.00   0.00   0.10
  26   1    -0.10   0.01   0.00     0.04  -0.04   0.03     0.18  -0.13   0.09
                     16                     17                     18
                        a                      a                      a 
 Frequencies --   774.0282               795.3594              1505.1333
 Red. masses --    99.0000                99.0000                99.0000
 Frc consts  --    99.0000                99.0000                99.0000
 IR Inten    --    99.0000                99.0000                99.0000
 Raman Activ --     0.0000                 0.0000                 0.0000
 Depolar     --     0.0000                 0.0000                 0.0000
 Atom AN      X      Y      Z        X      Y      Z        X      Y      Z
   1   6    -0.00  -0.00   0.01    -0.00   0.00  -0.04    -0.00  -0.00   0.15
   2   6    -0.00  -0.00   0.12     0.00   0.00  -0.17    -0.00   0.00   0.03
   3   6     0.00  -0.00   0.13     0.00  -0.00  -0.05     0.00   0.00  -0.00
   4   6     0.00   0.00   0.06     0.00  -0.00   0.14    -0.00   0.00  -0.00
   5   6     0.00   0.00  -0.06    -0.00   0.00   0.14     0.00  -0.00   0.00
   6   6     0.00  -0.00  -0.13    -0.00   0.00  -0.05     0.00   0.00   0.00
   7   6    -0.00  -0.00  -0.12    -0.00  -0.00  -0.17    -0.00  -0.00  -0.03
   8   6    -0.00  -0.00  -0.01     0.00  -0.00  -0.04    -0.00  -0.00  -0.15
   9   1     0.09  -0.07  -0.06    -0.14   0.11   0.08    -0.30  -0.11  -0.06
  10   1    -0.09   0.08  -0.06     0.14  -0.11   0.08     0.30   0.11  -0.05
  11   1     0.00   0.00  -0.04    -0.00  -0.00   0.07     0.00   0.01  -0.50
  12   1    -0.03  -0.25  -0.16    -0.02   0.27   0.16     0.01  -0.01  -0.00
  13   1     0.03   0.25  -0.15     0.02  -0.27   0.15    -0.01   0.01   0.00
  14   1    -0.01  -0.27  -0.17     0.11   0.08   0.05     0.01   0.00   0.00
  15   1     0.01   0.28  -0.16    -0.11  -0.08   0.04    -0.01  -0.00   0.00
  16   1     0.08  -0.11  -0.07    -0.06  -0.21  -0.12    -0.00  -0.00  -0.00
  17   1    -0.07   0.11  -0.07     0.06   0.21  -0.12     0.00  -0.01   0.00
  18   1    -0.07   0.11   0.07    -0.06  -0.21  -0.12     0.00   0.00   0.00
  19   1     0.08  -0.11   0.07     0.06   0.21  -0.12    -0.00   0.00  -0.00
  20   1     0.01   0.27   0.16     0.11   0.08   0.04    -0.01  -0.01  -0.01
  21   1    -0.01  -0.27   0.17    -0.11  -0.08   0.05     0.01  -0.01   0.00
  22   1     0.03   0.25   0.15    -0.02   0.27   0.15    -0.01   0.02   0.00
  23   1    -0.03  -0.25   0.16     0.02  -0.27   0.16     0.01  -0.01  -0.00
  24   1    -0.09   0.08   0.06    -0.14   0.11   0.08     0.31   0.12   0.05
  25   1     0.00   0.00   0.04     0.00   0.00   0.07     0.00   0.01   0.51
  26   1     0.09  -0.07   0.06     0.14  -0.11   0.08    -0.31  -0.11   0.06
                     19                     20                     21
                        a                      a                      a 
 Frequencies --  1505.1148               903.9160              1508.0688
 Red. masses --    99.0000                99.0000                99.0000
 Frc consts  --    99.0000                99.0000                99.0000
 IR Inten    --    99.0000                99.0000                99.0000
 Raman Activ --     0.0000                 0.0000                 0.0000
 Depolar     --     0.0000                 0.0000                 0.0000
 Atom AN      X      Y      Z        X      Y      Z        X      Y      Z
   1   6    -0.00  -0.00   0.15     0.00   0.00  -0.12    -0.07  -0.13  -0.00
   2   6    -0.00  -0.01   0.03    -0.00   0.00  -0.05    -0.03  -0.08  -0.00
   3   6     0.00   0.01  -0.00    -0.00  -0.00   0.22     0.02  -0.03  -0.00
   4   6     0.00  -0.01  -0.00    -0.00  -0.00  -0.12    -0.01  -0.01  -0.00
   5   6    -0.00   0.01  -0.00     0.00   0.00  -0.12    -0.01  -0.01   0.00
   6   6    -0.00  -0.01  -0.00     0.00   0.00   0.22     0.02  -0.03   0.00
   7   6     0.00   0.01   0.03     0.00  -0.00  -0.05    -0.03  -0.08   0.00
   8   6     0.00   0.00   0.15    -0.00  -0.00  -0.12    -0.07  -0.13   0.00
   9   1    -0.31  -0.11  -0.06    -0.20   0.14   0.09     0.08   0.34   0.25
  10   1     0.31   0.12  -0.05     0.20  -0.14   0.08     0.08   0.35  -0.24
  11   1     0.00   0.01  -0.51    -0.00  -0.00   0.11     0.13  -0.18  -0.00
  12   1     0.01   0.01   0.01    -0.20   0.05   0.03     0.02   0.09   0.08
  13   1    -0.01   0.03  -0.01     0.20  -0.05   0.03     0.02   0.10  -0.07
  14   1     0.01  -0.02  -0.01    -0.03  -0.21  -0.10    -0.01   0.07   0.05
  15   1    -0.01  -0.02   0.01     0.03   0.21  -0.09    -0.01   0.07  -0.05
  16   1    -0.00   0.02   0.02     0.16   0.12   0.05     0.00   0.01   0.01
  17   1     0.00   0.02  -0.02    -0.16  -0.12   0.05     0.00   0.01  -0.01
  18   1    -0.00  -0.02  -0.02     0.16   0.12   0.05     0.00   0.01   0.01
  19   1     0.00  -0.02   0.02    -0.16  -0.12   0.05     0.00   0.01  -0.01
  20   1     0.01   0.02   0.01    -0.03  -0.21  -0.09    -0.01   0.07   0.05
  21   1    -0.01   0.02  -0.01     0.03   0.21  -0.10    -0.01   0.07  -0.05
  22   1     0.01  -0.03  -0.01    -0.20   0.05   0.03     0.02   0.10   0.07
  23   1    -0.01  -0.01   0.01     0.20  -0.05   0.03     0.02   0.09  -0.08
  24   1    -0.30  -0.12  -0.05    -0.20   0.14   0.08     0.08   0.35   0.24
  25   1    -0.00  -0.01  -0.50     0.00   0.00   0.11     0.13  -0.18   0.00
  26   1     0.30   0.11  -0.05     0.20  -0.14   0.09     0.08   0.34  -0.26
                     22                     23                     24
                        a                      a                      a 
 Frequencies --  1508.2514               968.3690              1198.9937
 Red. masses --    99.0000                99.0000                99.0000
 Frc consts  --    99.0000                99.0000                99.0000
 IR Inten    --    99.0000                99.0000                99.0000
 Raman Activ --     0.0000                 0.0000                 0.0000
 Depolar     --     0.0000                 0.0000                 0.0000
 Atom AN      X      Y      Z        X      Y      Z        X      Y      Z
   1   6     0.07   0.13   0.00     0.00  -0.00   0.13     0.00  -0.00   0.17
   2   6     0.03   0.06   0.00     0.00   0.00  -0.08    -0.00  -0.00  -0.26
   3   6    -0.02   0.04   0.00    -0.00  -0.00  -0.08    -0.00   0.00   0.28
   4   6     0.01  -0.02  -0.00     0.00   0.00   0.19    -0.00  -0.00  -0.29
   5   6    -0.01   0.02  -0.00     0.00   0.00  -0.19    -0.00  -0.00   0.29
   6   6     0.02  -0.04   0.00    -0.00  -0.00   0.08    -0.00   0.00  -0.28
   7   6    -0.03  -0.06   0.00     0.00   0.00   0.08    -0.00  -0.00   0.26
   8   6    -0.07  -0.12   0.00     0.00   0.00  -0.13     0.00  -0.00  -0.17
   9   1    -0.08  -0.34  -0.25     0.18  -0.12  -0.07     0.13  -0.10  -0.04
  10   1    -0.08  -0.35   0.24    -0.18   0.12  -0.07    -0.13   0.10  -0.04
  11   1    -0.13   0.18   0.00     0.00  -0.00  -0.09     0.00  -0.00  -0.07
  12   1    -0.02  -0.06  -0.05     0.23   0.07   0.03     0.00   0.15   0.05
  13   1    -0.02  -0.06   0.05    -0.24  -0.07   0.02    -0.00  -0.16   0.05
  14   1     0.01  -0.10  -0.08     0.23   0.07   0.03     0.04  -0.16  -0.06
  15   1     0.01  -0.10   0.07    -0.24  -0.08   0.03    -0.03   0.16  -0.05
  16   1    -0.00   0.05   0.04     0.10  -0.15  -0.07    -0.00   0.17   0.06
  17   1    -0.00   0.05  -0.04    -0.10   0.15  -0.07     0.01  -0.17   0.06
  18   1     0.00  -0.05  -0.04    -0.10   0.15   0.07     0.01  -0.17  -0.06
  19   1     0.00  -0.05   0.04     0.10  -0.15   0.07    -0.00   0.17  -0.06
  20   1    -0.01   0.10   0.07    -0.24  -0.08  -0.03    -0.03   0.16   0.05
  21   1    -0.01   0.10  -0.07     0.23   0.07  -0.03     0.04  -0.16   0.06
  22   1     0.02   0.06   0.05    -0.24  -0.07  -0.02    -0.00  -0.16  -0.05
  23   1     0.02   0.06  -0.05     0.23   0.07  -0.03     0.00   0.15  -0.05
  24   1     0.08   0.35   0.24    -0.18   0.12   0.07    -0.13   0.10   0.04
  25   1     0.13  -0.18   0.00     0.01  -0.00   0.09     0.00  -0.00   0.07
  26   1     0.08   0.34  -0.25     0.18  -0.12   0.07     0.13  -0.10   0.04
                     25                     26                     27
                        a                      a                      a 
 Frequencies --  1020.2594              1217.4003              1498.8311
 Red. masses --    99.0000                99.0000                99.0000
 Frc consts  --    99.0000                99.0000                99.0000
 IR Inten    --    99.0000                99.0000                99.0000
 Raman Activ --     0.0000                 0.0000                 0.0000
 Depolar     --     0.0000                 0.0000                 0.0000
 Atom AN      X      Y      Z        X      Y      Z        X      Y      Z
   1   6     0.00  -0.00   0.10    -0.00  -0.00   0.22     0.01   0.04   0.00
   2   6    -0.00   0.01  -0.12     0.00   0.00  -0.31     0.03  -0.10  -0.00
   3   6    -0.01   0.00   0.08    -0.00  -0.00   0.21     0.01  -0.17  -0.00
   4   6    -0.00  -0.01  -0.03     0.00   0.00  -0.08    -0.02  -0.03  -0.00
   5   6     0.00   0.01  -0.03    -0.00  -0.00  -0.08     0.02   0.03  -0.00
   6   6     0.01  -0.00   0.08     0.00   0.00   0.21    -0.01   0.17  -0.00
   7   6     0.00  -0.01  -0.12     0.00  -0.00  -0.31    -0.03   0.10  -0.00
   8   6    -0.00   0.00   0.10     0.00   0.00   0.22    -0.01  -0.04   0.00
   9   1     0.12  -0.08  -0.04     0.16  -0.13  -0.06    -0.02  -0.11  -0.08
  10   1    -0.11   0.08  -0.04    -0.16   0.13  -0.05    -0.01  -0.11   0.08
  11   1     0.00   0.00  -0.06     0.00   0.00  -0.10    -0.04   0.05  -0.00
  12   1     0.17   0.10   0.04    -0.10   0.17   0.06    -0.02   0.19   0.15
  13   1    -0.17  -0.09   0.03     0.10  -0.17   0.05    -0.02   0.20  -0.14
  14   1     0.27  -0.05  -0.03    -0.11  -0.12  -0.04    -0.02   0.30   0.23
  15   1    -0.27   0.05  -0.03     0.11   0.12  -0.04    -0.01   0.30  -0.22
  16   1     0.31   0.03   0.01    -0.17   0.04   0.01     0.01   0.05   0.04
  17   1    -0.31  -0.04   0.01     0.17  -0.04   0.01     0.01   0.05  -0.04
  18   1     0.31   0.04   0.01    -0.17   0.04   0.01    -0.01  -0.05  -0.04
  19   1    -0.31  -0.03   0.01     0.17  -0.04   0.01    -0.01  -0.05   0.04
  20   1     0.27  -0.05  -0.03    -0.11  -0.12  -0.04     0.01  -0.30  -0.22
  21   1    -0.27   0.05  -0.03     0.10   0.12  -0.04     0.02  -0.30   0.23
  22   1     0.17   0.09   0.03    -0.10   0.17   0.05     0.02  -0.20  -0.15
  23   1    -0.17  -0.10   0.04     0.09  -0.17   0.06     0.02  -0.20   0.15
  24   1     0.11  -0.08  -0.04     0.16  -0.13  -0.05     0.01   0.11   0.08
  25   1    -0.00  -0.00  -0.06    -0.00  -0.00  -0.10     0.04  -0.05  -0.00
  26   1    -0.11   0.08  -0.04    -0.16   0.13  -0.06     0.02   0.11  -0.08
                     28                     29                     30
                        a                      a                      a 
 Frequencies --  1495.9583              1496.1057              1502.0516
 Red. masses --    99.0000                99.0000                99.0000
 Frc consts  --    99.0000                99.0000                99.0000
 IR Inten    --    99.0000                99.0000                99.0000
 Raman Activ --     0.0000                 0.0000                 0.0000
 Depolar     --     0.0000                 0.0000                 0.0000
 Atom AN      X      Y      Z        X      Y      Z        X      Y      Z
   1   6     0.00   0.03   0.00     0.00  -0.02  -0.00    -0.01  -0.03  -0.00
   2   6     0.02  -0.08  -0.00     0.01   0.12   0.00    -0.02   0.08   0.00
   3   6     0.03  -0.13  -0.00    -0.02  -0.07  -0.00     0.01   0.10   0.00
   4   6    -0.03   0.12   0.00    -0.02  -0.14  -0.00    -0.01   0.17   0.00
   5   6    -0.03   0.12  -0.00     0.02   0.14  -0.00    -0.01   0.17  -0.00
   6   6     0.03  -0.13   0.00     0.02   0.07  -0.00     0.01   0.10  -0.00
   7   6     0.02  -0.09   0.00    -0.01  -0.11   0.00    -0.02   0.08  -0.00
   8   6     0.00   0.03  -0.00    -0.00   0.02   0.00    -0.01  -0.03   0.00
   9   1    -0.01  -0.08  -0.06    -0.01   0.05   0.04     0.01   0.08   0.06
  10   1    -0.01  -0.08   0.06    -0.01   0.06  -0.04     0.01   0.08  -0.06
  11   1    -0.03   0.04  -0.00     0.01  -0.01  -0.00     0.03  -0.03   0.00
  12   1    -0.02   0.15   0.12     0.00  -0.23  -0.18     0.01  -0.15  -0.12
  13   1    -0.02   0.16  -0.12     0.00  -0.24   0.17     0.01  -0.15   0.11
  14   1    -0.02   0.24   0.19     0.01   0.12   0.09     0.00  -0.15  -0.12
  15   1    -0.02   0.25  -0.18     0.02   0.13  -0.09     0.00  -0.16   0.12
  16   1     0.03  -0.23  -0.17     0.01   0.28   0.21     0.02  -0.30  -0.23
  17   1     0.03  -0.23   0.17     0.00   0.28  -0.21     0.02  -0.30   0.22
  18   1     0.03  -0.23  -0.17    -0.01  -0.27  -0.20     0.02  -0.30  -0.23
  19   1     0.03  -0.23   0.18    -0.01  -0.27   0.20     0.02  -0.30   0.23
  20   1    -0.02   0.25   0.18    -0.01  -0.13  -0.09     0.00  -0.16  -0.12
  21   1    -0.02   0.24  -0.19    -0.01  -0.13   0.10     0.00  -0.15   0.12
  22   1    -0.02   0.16   0.12    -0.00   0.23   0.17     0.01  -0.15  -0.11
  23   1    -0.02   0.16  -0.12    -0.00   0.23  -0.17     0.01  -0.15   0.12
  24   1    -0.01  -0.08  -0.06     0.01  -0.06  -0.04     0.01   0.08   0.06
  25   1    -0.03   0.04   0.00    -0.01   0.01  -0.00     0.03  -0.03  -0.00
  26   1    -0.01  -0.08   0.06     0.01  -0.05   0.04     0.01   0.08  -0.06
                     31                     32                     33
                        a                      a                      a 
 Frequencies --   933.6644               949.2813              1499.6215
 Red. masses --    99.0000                99.0000                99.0000
 Frc consts  --    99.0000                99.0000                99.0000
 IR Inten    --    99.0000                99.0000                99.0000
 Raman Activ --     0.0000                 0.0000                 0.0000
 Depolar     --     0.0000                 0.0000                 0.0000
 Atom AN      X      Y      Z        X      Y      Z        X      Y      Z
   1   6     0.24   0.08   0.00     0.27   0.08   0.00     0.01  -0.02   0.00
   2   6     0.07   0.21   0.00     0.04   0.19   0.00     0.01   0.15   0.00
   3   6    -0.11  -0.30  -0.00    -0.19  -0.22  -0.00    -0.01  -0.12  -0.00
   4   6    -0.11   0.10  -0.00    -0.09   0.04   0.00    -0.00  -0.03  -0.00
   5   6    -0.11   0.10   0.00     0.09  -0.04   0.00    -0.00  -0.03   0.00
   6   6    -0.11  -0.30   0.00     0.19   0.22  -0.00    -0.01  -0.12   0.00
   7   6     0.07   0.21  -0.00    -0.04  -0.19   0.00     0.01   0.15  -0.00
   8   6     0.24   0.08   0.00    -0.27  -0.08   0.00     0.01  -0.02  -0.00
   9   1    -0.16  -0.02  -0.01    -0.16  -0.02  -0.02    -0.01   0.04   0.03
  10   1    -0.16  -0.02   0.01    -0.16  -0.02   0.01    -0.01   0.05  -0.03
  11   1     0.29  -0.29  -0.00     0.31  -0.29  -0.00     0.00   0.00  -0.00
  12   1    -0.08   0.05   0.00    -0.09   0.05   0.00     0.00  -0.29  -0.23
  13   1    -0.08   0.05   0.00    -0.09   0.05  -0.00    -0.00  -0.30   0.22
  14   1    -0.06  -0.08  -0.00    -0.10  -0.06  -0.00     0.00   0.24   0.18
  15   1    -0.06  -0.08  -0.00    -0.10  -0.06  -0.00     0.00   0.24  -0.17
  16   1     0.01   0.03   0.00    -0.03   0.01  -0.00     0.01   0.03   0.03
  17   1     0.01   0.02   0.00    -0.03   0.01   0.00     0.01   0.03  -0.02
  18   1     0.01   0.02  -0.00     0.03  -0.01   0.00     0.01   0.03   0.02
  19   1     0.01   0.03  -0.00     0.03  -0.01  -0.00     0.01   0.03  -0.03
  20   1    -0.06  -0.08   0.00     0.10   0.06  -0.00     0.00   0.24   0.17
  21   1    -0.06  -0.08   0.00     0.11   0.06  -0.00     0.00   0.24  -0.18
  22   1    -0.08   0.05  -0.00     0.09  -0.05  -0.00    -0.00  -0.30  -0.22
  23   1    -0.08   0.05  -0.00     0.09  -0.05   0.00     0.00  -0.29   0.23
  24   1    -0.16  -0.02  -0.01     0.16   0.03   0.01    -0.01   0.05   0.03
  25   1     0.29  -0.29   0.00    -0.31   0.29  -0.00     0.00   0.00   0.00
  26   1    -0.16  -0.02   0.01     0.16   0.02  -0.02    -0.02   0.04  -0.03
                     34                     35                     36
                        a                      a                      a 
 Frequencies --  1504.7508              1249.3117              1044.6482
 Red. masses --    99.0000                99.0000                99.0000
 Frc consts  --    99.0000                99.0000                99.0000
 IR Inten    --    99.0000                99.0000                99.0000
 Raman Activ --     0.0000                 0.0000                 0.0000
 Depolar     --     0.0000                 0.0000                 0.0000
 Atom AN      X      Y      Z        X      Y      Z        X      Y      Z
   1   6     0.02   0.01   0.01    -0.00  -0.00  -0.20     0.14  -0.19  -0.00
   2   6     0.01   0.12   0.00     0.00   0.00   0.16    -0.14   0.21   0.01
   3   6    -0.00  -0.08  -0.00     0.01  -0.00   0.08    -0.26   0.10  -0.00
   4   6     0.00   0.12   0.00     0.01   0.00  -0.24    -0.14  -0.44  -0.00
   5   6    -0.00  -0.12   0.00     0.01   0.00   0.24     0.14   0.44  -0.00
   6   6     0.00   0.08  -0.00     0.01  -0.00  -0.08     0.26  -0.10  -0.00
   7   6    -0.01  -0.12   0.01     0.00   0.00  -0.16     0.14  -0.21   0.01
   8   6    -0.02  -0.01   0.02    -0.00  -0.00   0.20    -0.14   0.19  -0.00
   9   1    -0.05  -0.04  -0.03    -0.13   0.11   0.04     0.14  -0.03   0.01
  10   1    -0.00  -0.03   0.02     0.13  -0.11   0.04     0.14  -0.04  -0.00
  11   1    -0.02   0.04  -0.04    -0.00   0.00   0.08    -0.04   0.06   0.00
  12   1    -0.00  -0.22  -0.17     0.26  -0.08  -0.02     0.03   0.06   0.00
  13   1    -0.01  -0.22   0.16    -0.27   0.08  -0.02     0.04   0.07  -0.00
  14   1    -0.01   0.17   0.13     0.17  -0.04  -0.01     0.01   0.03   0.00
  15   1    -0.01   0.17  -0.12    -0.20   0.03  -0.01     0.03   0.03   0.00
  16   1     0.01  -0.26  -0.19     0.12   0.14   0.04    -0.02  -0.11  -0.00
  17   1     0.01  -0.26   0.19    -0.15  -0.14   0.04     0.00  -0.11  -0.00
  18   1    -0.01   0.26   0.19    -0.14  -0.14  -0.04    -0.00   0.11   0.00
  19   1    -0.01   0.26  -0.19     0.12   0.14  -0.04     0.02   0.11  -0.00
  20   1     0.01  -0.17  -0.12    -0.20   0.03   0.01    -0.03  -0.03   0.00
  21   1     0.01  -0.17   0.13     0.17  -0.04   0.01    -0.01  -0.03   0.00
  22   1     0.01   0.22   0.16    -0.27   0.08   0.02    -0.04  -0.07  -0.00
  23   1     0.00   0.22  -0.17     0.26  -0.08   0.02    -0.03  -0.06   0.00
  24   1    -0.01   0.02   0.02     0.13  -0.11  -0.04    -0.14   0.03  -0.00
  25   1     0.02  -0.04  -0.05    -0.00   0.00  -0.08     0.04  -0.06   0.00
  26   1     0.05   0.04  -0.03    -0.13   0.11  -0.04    -0.14   0.03   0.01
                     37                     38                     39
                        a                      a                      a 
 Frequencies --  1074.9701              1097.7822              1277.9663
 Red. masses --    99.0000                99.0000                99.0000
 Frc consts  --    99.0000                99.0000                99.0000
 IR Inten    --    99.0000                99.0000                99.0000
 Raman Activ --     0.0000                 0.0000                 0.0000
 Depolar     --     0.0000                 0.0000                 0.0000
 Atom AN      X      Y      Z        X      Y      Z        X      Y      Z
   1   6     0.24  -0.15  -0.00     0.09  -0.28  -0.00    -0.00  -0.01   0.15
   2   6    -0.27   0.14   0.00    -0.20   0.28   0.00     0.01   0.00   0.01
   3   6    -0.26   0.22   0.00     0.09  -0.20  -0.00     0.01   0.00  -0.22
   4   6     0.29  -0.20  -0.00    -0.19   0.14   0.00     0.00  -0.01   0.09
   5   6     0.29  -0.20   0.00    -0.19   0.14   0.00    -0.00   0.01   0.09
   6   6    -0.26   0.22  -0.00     0.09  -0.20   0.00    -0.01  -0.00  -0.22
   7   6    -0.27   0.14  -0.00    -0.20   0.28  -0.00    -0.01  -0.00   0.01
   8   6     0.24  -0.15   0.00     0.09  -0.28   0.00     0.00   0.01   0.15
   9   1     0.07  -0.05  -0.00     0.20  -0.04   0.01     0.09  -0.08  -0.02
  10   1     0.07  -0.05   0.00     0.20  -0.04  -0.01    -0.09   0.08  -0.02
  11   1     0.07  -0.05  -0.00    -0.11   0.12   0.00    -0.00   0.00  -0.04
  12   1    -0.09   0.04   0.00    -0.01   0.07  -0.00    -0.39  -0.02  -0.01
  13   1    -0.09   0.04  -0.00    -0.01   0.07   0.00     0.38   0.02  -0.00
  14   1    -0.09   0.06   0.00     0.17  -0.04   0.00     0.02   0.12   0.03
  15   1    -0.09   0.06  -0.00     0.17  -0.04  -0.00    -0.04  -0.12   0.03
  16   1     0.08  -0.06  -0.00     0.05   0.04   0.00     0.17  -0.04  -0.01
  17   1     0.08  -0.06   0.00     0.05   0.04  -0.00    -0.18   0.04  -0.01
  18   1     0.08  -0.06  -0.00     0.05   0.04   0.00     0.18  -0.04  -0.01
  19   1     0.07  -0.06   0.00     0.05   0.04  -0.00    -0.17   0.04  -0.01
  20   1    -0.09   0.06   0.00     0.17  -0.04   0.00     0.04   0.12   0.03
  21   1    -0.09   0.06  -0.00     0.17  -0.04  -0.00    -0.02  -0.12   0.03
  22   1    -0.09   0.04   0.00    -0.01   0.07  -0.00    -0.38  -0.02  -0.00
  23   1    -0.09   0.04  -0.00    -0.01   0.07   0.00     0.39   0.02  -0.00
  24   1     0.07  -0.05  -0.00     0.20  -0.04   0.01     0.09  -0.08  -0.02
  25   1     0.07  -0.05   0.00    -0.11   0.12  -0.00     0.00  -0.00  -0.04
  26   1     0.07  -0.05   0.00     0.20  -0.04  -0.01    -0.09   0.08  -0.03
                     40                     41                     42
                        a                      a                      a 
 Frequencies --  1123.0155              1105.6175              1109.1230
 Red. masses --    99.0000                99.0000                99.0000
 Frc consts  --    99.0000                99.0000                99.0000
 IR Inten    --    99.0000                99.0000                99.0000
 Raman Activ --     0.0000                 0.0000                 0.0000
 Depolar     --     0.0000                 0.0000                 0.0000
 Atom AN      X      Y      Z        X      Y      Z        X      Y      Z
   1   6    -0.14  -0.00  -0.00     0.14  -0.15  -0.00    -0.18   0.15   0.00
   2   6     0.27   0.20   0.00    -0.28   0.02  -0.00     0.27  -0.10  -0.00
   3   6    -0.34  -0.16  -0.00     0.32  -0.06   0.00     0.03  -0.15  -0.00
   4   6     0.07  -0.08  -0.00    -0.25   0.11   0.00    -0.41  -0.19  -0.00
   5   6     0.07  -0.08   0.00     0.25  -0.11   0.00     0.41   0.19  -0.00
   6   6    -0.34  -0.16   0.00    -0.32   0.06   0.00    -0.03   0.15  -0.00
   7   6     0.27   0.20  -0.00     0.28  -0.02  -0.00    -0.27   0.10  -0.00
   8   6    -0.14  -0.00  -0.00    -0.14   0.15  -0.00     0.18  -0.15   0.00
   9   1     0.06   0.03   0.01     0.07  -0.04  -0.00    -0.07   0.04   0.00
  10   1     0.05   0.03  -0.01     0.07  -0.04   0.00    -0.07   0.04  -0.00
  11   1    -0.12   0.11   0.00     0.02  -0.02  -0.00    -0.03   0.02   0.00
  12   1     0.24   0.06   0.00    -0.18  -0.00  -0.00     0.12  -0.03  -0.00
  13   1     0.24   0.06   0.00    -0.18  -0.00   0.00     0.12  -0.03   0.00
  14   1    -0.10  -0.05  -0.00     0.18  -0.01   0.00     0.04  -0.05  -0.01
  15   1    -0.11  -0.04  -0.00     0.18  -0.01  -0.00     0.04  -0.05   0.01
  16   1     0.13  -0.02  -0.00    -0.17   0.02   0.00    -0.20  -0.06  -0.00
  17   1     0.13  -0.03   0.00    -0.17   0.02   0.00    -0.20  -0.06   0.00
  18   1     0.13  -0.03  -0.00     0.17  -0.02   0.00     0.20   0.06   0.00
  19   1     0.13  -0.03   0.00     0.17  -0.03   0.00     0.20   0.06  -0.00
  20   1    -0.11  -0.04   0.00    -0.18   0.01  -0.00    -0.04   0.05   0.01
  21   1    -0.10  -0.05   0.00    -0.18   0.01   0.00    -0.04   0.05  -0.01
  22   1     0.24   0.06  -0.00     0.18   0.00   0.00    -0.12   0.03   0.00
  23   1     0.24   0.06  -0.00     0.18   0.00  -0.00    -0.12   0.03  -0.00
  24   1     0.05   0.03   0.01    -0.07   0.04   0.00     0.07  -0.04  -0.00
  25   1    -0.12   0.11  -0.00    -0.02   0.02  -0.00     0.03  -0.02   0.00
  26   1     0.06   0.03  -0.01    -0.07   0.04  -0.00     0.07  -0.04   0.00
                     43                     44                     45
                        a                      a                      a 
 Frequencies --  1145.8823              1274.8118              1296.1349
 Red. masses --    99.0000                99.0000                99.0000
 Frc consts  --    99.0000                99.0000                99.0000
 IR Inten    --    99.0000                99.0000                99.0000
 Raman Activ --     0.0000                 0.0000                 0.0000
 Depolar     --     0.0000                 0.0000                 0.0000
 Atom AN      X      Y      Z        X      Y      Z        X      Y      Z
   1   6    -0.07  -0.16  -0.00    -0.00   0.00  -0.01    -0.00  -0.00   0.08
   2   6     0.09   0.32   0.00     0.00   0.00  -0.11     0.00   0.00   0.06
   3   6    -0.07  -0.35  -0.00    -0.00  -0.00  -0.02     0.00   0.00  -0.17
   4   6    -0.03   0.28   0.00     0.00  -0.00   0.04    -0.00  -0.00  -0.14
   5   6     0.03  -0.28   0.00     0.00  -0.00  -0.04    -0.00  -0.00   0.14
   6   6     0.07   0.35  -0.00    -0.00  -0.00   0.02     0.00   0.00   0.17
   7   6    -0.09  -0.32   0.00     0.00   0.00   0.11     0.00   0.00  -0.05
   8   6     0.07   0.16  -0.00    -0.00   0.00   0.01    -0.00  -0.00  -0.08
   9   1     0.15  -0.00   0.02    -0.01   0.00  -0.00     0.05  -0.04  -0.01
  10   1     0.15   0.00  -0.02     0.01  -0.00  -0.00    -0.05   0.04  -0.01
  11   1    -0.15   0.14   0.00     0.00   0.00  -0.02    -0.00   0.00  -0.02
  12   1     0.12   0.08  -0.00     0.17   0.06   0.01    -0.28  -0.04  -0.01
  13   1     0.12   0.08   0.00    -0.17  -0.06   0.01     0.27   0.04  -0.01
  14   1    -0.01  -0.09   0.00    -0.35  -0.00  -0.00     0.12   0.09   0.02
  15   1    -0.01  -0.08  -0.00     0.35   0.00   0.00    -0.13  -0.09   0.02
  16   1     0.01   0.06  -0.00     0.29  -0.01  -0.01     0.33   0.08   0.01
  17   1     0.01   0.06   0.00    -0.29   0.01  -0.01    -0.33  -0.08   0.02
  18   1    -0.01  -0.06   0.00    -0.29   0.01   0.01    -0.33  -0.08  -0.02
  19   1    -0.01  -0.06  -0.00     0.29  -0.01   0.01     0.34   0.08  -0.01
  20   1     0.01   0.08  -0.00     0.35   0.00  -0.00    -0.12  -0.09  -0.02
  21   1     0.01   0.09   0.00    -0.35  -0.00   0.00     0.12   0.09  -0.02
  22   1    -0.12  -0.08   0.00    -0.17  -0.06  -0.01     0.27   0.04   0.01
  23   1    -0.12  -0.08  -0.00     0.17   0.06  -0.01    -0.28  -0.04   0.01
  24   1    -0.15  -0.00  -0.02     0.01  -0.00   0.00    -0.05   0.04   0.01
  25   1     0.15  -0.14   0.00    -0.00   0.00   0.02    -0.00   0.00   0.02
  26   1    -0.15   0.00   0.02    -0.01   0.00   0.00     0.05  -0.04   0.01
                     46                     47                     48
                        a                      a                      a 
 Frequencies --  1240.2113              1293.1991              1285.7284
 Red. masses --    99.0000                99.0000                99.0000
 Frc consts  --    99.0000                99.0000                99.0000
 IR Inten    --    99.0000                99.0000                99.0000
 Raman Activ --     0.0000                 0.0000                 0.0000
 Depolar     --     0.0000                 0.0000                 0.0000
 Atom AN      X      Y      Z        X      Y      Z        X      Y      Z
   1   6    -0.04  -0.11   0.01    -0.00  -0.00   0.00    -0.04  -0.11  -0.01
   2   6     0.09   0.16  -0.01     0.00   0.00  -0.11     0.18   0.10   0.00
   3   6     0.14  -0.12   0.00     0.00  -0.00  -0.05     0.20   0.02   0.01
   4   6     0.18   0.05   0.01    -0.00  -0.00   0.17     0.09  -0.12  -0.00
   5   6     0.18   0.05  -0.01     0.00   0.00   0.17    -0.09   0.12  -0.00
   6   6     0.14  -0.12  -0.00    -0.00   0.00  -0.05    -0.20  -0.02   0.01
   7   6     0.09   0.16   0.01    -0.00  -0.00  -0.11    -0.18  -0.10   0.00
   8   6    -0.04  -0.11  -0.01     0.00   0.00   0.00     0.04   0.11  -0.01
   9   1     0.08  -0.00   0.01    -0.00  -0.01  -0.01     0.04   0.02   0.02
  10   1     0.06   0.01  -0.02     0.00   0.01  -0.01     0.04   0.01  -0.02
  11   1    -0.08   0.08  -0.00    -0.00   0.00  -0.02    -0.10   0.09   0.00
  12   1    -0.11   0.03  -0.00     0.12   0.06   0.01    -0.21   0.01  -0.01
  13   1    -0.09   0.02   0.01    -0.12  -0.06   0.01    -0.24   0.01   0.00
  14   1    -0.26  -0.03   0.00    -0.38   0.01   0.01    -0.33  -0.02  -0.01
  15   1    -0.25  -0.03  -0.00     0.38  -0.01   0.01    -0.32  -0.01   0.00
  16   1    -0.33  -0.01  -0.00     0.24  -0.07  -0.02    -0.15  -0.02   0.01
  17   1    -0.32  -0.00   0.00    -0.24   0.07  -0.02    -0.14  -0.02  -0.01
  18   1    -0.32  -0.00  -0.00     0.24  -0.07  -0.02     0.14   0.02  -0.01
  19   1    -0.33  -0.01   0.00    -0.24   0.08  -0.02     0.15   0.02   0.01
  20   1    -0.25  -0.03   0.00    -0.38   0.01   0.01     0.33   0.01   0.00
  21   1    -0.26  -0.03  -0.00     0.38  -0.01   0.01     0.33   0.02  -0.01
  22   1    -0.09   0.02  -0.01     0.13   0.06   0.01     0.24  -0.01   0.00
  23   1    -0.11   0.03   0.00    -0.13  -0.06   0.01     0.21  -0.01  -0.00
  24   1     0.06   0.01   0.02    -0.00  -0.01  -0.01    -0.04  -0.01  -0.02
  25   1    -0.08   0.08   0.00     0.00  -0.00  -0.02     0.10  -0.09   0.00
  26   1     0.08  -0.00  -0.01     0.00   0.01  -0.01    -0.04  -0.02   0.02
                     49                     50                     51
                        a                      a                      a 
 Frequencies --  1327.4728              1360.4023              1377.9029
 Red. masses --    99.0000                99.0000                99.0000
 Frc consts  --    99.0000                99.0000                99.0000
 IR Inten    --    99.0000                99.0000                99.0000
 Raman Activ --     0.0000                 0.0000                 0.0000
 Depolar     --     0.0000                 0.0000                 0.0000
 Atom AN      X      Y      Z        X      Y      Z        X      Y      Z
   1   6    -0.03  -0.09  -0.00    -0.03  -0.07  -0.00     0.03   0.04   0.00
   2   6     0.26   0.04   0.00     0.30  -0.01   0.00    -0.26   0.02  -0.00
   3   6     0.10   0.09   0.00    -0.14   0.05   0.00     0.32   0.01   0.00
   4   6    -0.18  -0.07   0.00    -0.21   0.04   0.00    -0.14  -0.04   0.00
   5   6    -0.18  -0.07  -0.00     0.21  -0.04   0.00    -0.14  -0.04  -0.00
   6   6     0.10   0.09  -0.00     0.14  -0.05  -0.00     0.32   0.01  -0.00
   7   6     0.26   0.04  -0.00    -0.30   0.01   0.00    -0.26   0.02   0.00
   8   6    -0.03  -0.09   0.00     0.03   0.07  -0.00     0.03   0.04  -0.00
   9   1     0.00   0.03   0.03    -0.02   0.04   0.04     0.00  -0.03  -0.02
  10   1     0.01   0.03  -0.03    -0.02   0.04  -0.03     0.00  -0.03   0.02
  11   1    -0.10   0.09   0.00    -0.08   0.08   0.00     0.05  -0.04  -0.00
  12   1    -0.30  -0.00  -0.00    -0.29  -0.00   0.01     0.22  -0.00  -0.01
  13   1    -0.31  -0.00  -0.00    -0.30  -0.00  -0.01     0.22  -0.00   0.01
  14   1    -0.15  -0.01  -0.02     0.14  -0.00  -0.02    -0.29  -0.01   0.00
  15   1    -0.15  -0.01   0.01     0.14  -0.01   0.02    -0.29  -0.01  -0.00
  16   1     0.24   0.01   0.01     0.23   0.00  -0.01     0.13   0.01   0.01
  17   1     0.25   0.01  -0.01     0.23   0.00   0.01     0.14   0.02  -0.02
  18   1     0.25   0.01   0.01    -0.23  -0.00   0.01     0.14   0.02   0.02
  19   1     0.24   0.01  -0.01    -0.23  -0.00  -0.01     0.13   0.02  -0.01
  20   1    -0.15  -0.01  -0.01    -0.14   0.01   0.02    -0.29  -0.01   0.00
  21   1    -0.15  -0.01   0.02    -0.14   0.00  -0.02    -0.29  -0.01  -0.00
  22   1    -0.31  -0.00   0.00     0.30   0.00  -0.01     0.22  -0.00  -0.01
  23   1    -0.30  -0.00   0.00     0.29   0.00   0.01     0.22  -0.00   0.01
  24   1     0.01   0.03   0.03     0.02  -0.04  -0.03     0.00  -0.03  -0.02
  25   1    -0.10   0.09  -0.00     0.08  -0.08   0.00     0.05  -0.04   0.00
  26   1     0.00   0.03  -0.03     0.02  -0.04   0.04     0.00  -0.03   0.02
                     52                     53                     54
                        a                      a                      a 
 Frequencies --  1379.6947              1416.6069              1416.6957
 Red. masses --    99.0000                99.0000                99.0000
 Frc consts  --    99.0000                99.0000                99.0000
 IR Inten    --    99.0000                99.0000                99.0000
 Raman Activ --     0.0000                 0.0000                 0.0000
 Depolar     --     0.0000                 0.0000                 0.0000
 Atom AN      X      Y      Z        X      Y      Z        X      Y      Z
   1   6    -0.03  -0.00  -0.00     0.27  -0.15  -0.00     0.27  -0.15  -0.00
   2   6     0.15  -0.01   0.00    -0.06  -0.01  -0.00    -0.06  -0.01  -0.00
   3   6    -0.27  -0.02  -0.00     0.00  -0.01  -0.00    -0.00  -0.02  -0.00
   4   6     0.35   0.01  -0.00     0.01   0.01  -0.00     0.03   0.01   0.00
   5   6    -0.35  -0.01  -0.00     0.01   0.01  -0.00    -0.03  -0.01   0.00
   6   6     0.27   0.02  -0.00     0.00  -0.01   0.00     0.00   0.02  -0.00
   7   6    -0.15   0.01   0.00    -0.06  -0.01   0.00     0.06   0.01  -0.00
   8   6     0.03   0.00  -0.00     0.27  -0.15   0.00    -0.27   0.15  -0.00
   9   1     0.02   0.01   0.01    -0.33   0.10   0.10    -0.33   0.10   0.11
  10   1     0.02   0.01  -0.01    -0.33   0.10  -0.10    -0.33   0.11  -0.10
  11   1    -0.01  -0.00   0.00    -0.20   0.29   0.00    -0.21   0.29   0.00
  12   1    -0.11   0.00   0.01     0.06   0.03   0.02     0.06   0.03   0.02
  13   1    -0.11   0.00  -0.01     0.06   0.03  -0.02     0.06   0.03  -0.02
  14   1     0.22   0.01   0.01     0.00  -0.01  -0.00     0.01  -0.01  -0.00
  15   1     0.21   0.01  -0.01     0.00  -0.01   0.00     0.01  -0.01  -0.00
  16   1    -0.29  -0.01   0.00    -0.02  -0.00  -0.00    -0.03  -0.00   0.00
  17   1    -0.29  -0.01  -0.00    -0.02  -0.00   0.00    -0.03  -0.00   0.00
  18   1     0.29   0.01  -0.00    -0.02  -0.00  -0.00     0.03   0.00  -0.00
  19   1     0.29   0.01   0.00    -0.02  -0.00   0.00     0.03   0.00   0.00
  20   1    -0.21  -0.01  -0.01     0.00  -0.01  -0.00    -0.01   0.01  -0.00
  21   1    -0.22  -0.01   0.01     0.01  -0.01   0.00    -0.01   0.01   0.00
  22   1     0.11  -0.00  -0.01     0.06   0.03   0.02    -0.06  -0.03  -0.02
  23   1     0.11  -0.00   0.01     0.06   0.03  -0.02    -0.06  -0.03   0.02
  24   1    -0.02  -0.01  -0.01    -0.33   0.11   0.10     0.33  -0.10  -0.10
  25   1     0.01   0.00  -0.00    -0.21   0.30  -0.00     0.20  -0.29   0.00
  26   1    -0.02  -0.01   0.01    -0.33   0.10  -0.11     0.33  -0.10   0.10
                     55                     56                     57
                        a                      a                      a 
 Frequencies --  2953.3015              2950.9729              2957.1094
 Red. masses --    99.0000                99.0000                99.0000
 Frc consts  --    99.0000                99.0000                99.0000
 IR Inten    --    99.0000                99.0000                99.0000
 Raman Activ --     0.0000                 0.0000                 0.0000
 Depolar     --     0.0000                 0.0000                 0.0000
 Atom AN      X      Y      Z        X      Y      Z        X      Y      Z
   1   6    -0.00   0.00  -0.00     0.00   0.00   0.00     0.00  -0.00   0.01
   2   6    -0.00  -0.00   0.09     0.00   0.00  -0.03     0.00   0.00  -0.14
   3   6     0.00   0.00  -0.16    -0.00  -0.00   0.10    -0.00  -0.00   0.12
   4   6     0.00  -0.00   0.09    -0.00   0.00  -0.17     0.00   0.00   0.10
   5   6    -0.00   0.00   0.09    -0.00   0.00   0.17     0.00   0.00  -0.10
   6   6    -0.00  -0.00  -0.16    -0.00  -0.00  -0.10    -0.00  -0.00  -0.12
   7   6     0.00   0.00   0.09     0.00   0.00   0.03     0.00   0.00   0.14
   8   6     0.00  -0.00  -0.00    -0.00  -0.00  -0.00     0.00  -0.00  -0.01
   9   1     0.00  -0.01   0.01    -0.00   0.00  -0.00    -0.00   0.02  -0.02
  10   1    -0.00   0.01   0.01     0.00  -0.00  -0.00     0.00  -0.02  -0.02
  11   1     0.00   0.00  -0.00    -0.00  -0.00   0.00    -0.00  -0.00   0.00
  12   1    -0.00   0.13  -0.16     0.00  -0.05   0.06     0.01  -0.20   0.25
  13   1     0.00  -0.12  -0.17    -0.00   0.05   0.06    -0.01   0.19   0.26
  14   1     0.01  -0.24   0.30    -0.01   0.16  -0.19    -0.00   0.17  -0.21
  15   1    -0.01   0.23   0.30     0.01  -0.15  -0.20     0.00  -0.16  -0.21
  16   1    -0.01   0.13  -0.16     0.01  -0.25   0.32    -0.00   0.14  -0.18
  17   1     0.01  -0.12  -0.16    -0.01   0.25   0.32     0.00  -0.14  -0.19
  18   1    -0.01   0.12  -0.16    -0.01   0.25  -0.32     0.00  -0.14   0.19
  19   1     0.01  -0.12  -0.16     0.01  -0.25  -0.32    -0.00   0.14   0.18
  20   1     0.01  -0.23   0.30     0.01  -0.15   0.20     0.01  -0.16   0.21
  21   1    -0.01   0.24   0.30    -0.01   0.15   0.19    -0.00   0.17   0.21
  22   1    -0.00   0.12  -0.17    -0.00   0.05  -0.06    -0.01   0.19  -0.26
  23   1     0.00  -0.13  -0.16     0.00  -0.05  -0.06     0.01  -0.20  -0.25
  24   1     0.00  -0.01   0.01     0.00  -0.00   0.00     0.00  -0.02   0.02
  25   1    -0.00  -0.00  -0.00    -0.00  -0.00  -0.00    -0.00  -0.00  -0.00
  26   1    -0.00   0.01   0.01    -0.00   0.00   0.00    -0.00   0.02   0.02
                     58                     59                     60
                        a                      a                      a 
 Frequencies --  2962.7941              2970.0649              3028.9086
 Red. masses --    99.0000                99.0000                99.0000
 Frc consts  --    99.0000                99.0000                99.0000
 IR Inten    --    99.0000                99.0000                99.0000
 Raman Activ --     0.0000                 0.0000                 0.0000
 Depolar     --     0.0000                 0.0000                 0.0000
 Atom AN      X      Y      Z        X      Y      Z        X      Y      Z
   1   6     0.00  -0.00   0.02     0.00   0.00  -0.02    -0.00  -0.01   0.21
   2   6     0.00   0.00  -0.16    -0.00   0.00   0.15    -0.00  -0.00   0.03
   3   6     0.00  -0.00  -0.02     0.00  -0.02   0.14    -0.00  -0.00   0.01
   4   6     0.00  -0.00   0.13    -0.00   0.01   0.05     0.00  -0.00   0.00
   5   6    -0.00   0.00   0.13    -0.00   0.02  -0.05     0.00  -0.00  -0.00
   6   6    -0.00   0.00  -0.02    -0.00  -0.02  -0.14    -0.00  -0.00  -0.01
   7   6    -0.00  -0.00  -0.16    -0.00  -0.00  -0.15    -0.00  -0.00  -0.03
   8   6    -0.00   0.00   0.01     0.00   0.00   0.02    -0.00  -0.01  -0.20
   9   1    -0.00   0.03  -0.03     0.00  -0.04   0.04    -0.01   0.31  -0.39
  10   1     0.00  -0.03  -0.04    -0.00   0.03   0.04     0.02  -0.28  -0.38
  11   1    -0.00  -0.00   0.00    -0.00  -0.00  -0.00     0.00   0.00   0.03
  12   1     0.01  -0.23   0.29    -0.01   0.20  -0.25     0.00   0.04  -0.05
  13   1    -0.01   0.22   0.30     0.01  -0.20  -0.28     0.00  -0.03  -0.05
  14   1     0.00  -0.03   0.03    -0.01   0.22  -0.29     0.00   0.01  -0.02
  15   1    -0.00   0.03   0.04     0.01  -0.15  -0.19    -0.00  -0.01  -0.01
  16   1    -0.01   0.18  -0.23    -0.00   0.05  -0.06    -0.00   0.00  -0.00
  17   1     0.01  -0.18  -0.23     0.00  -0.09  -0.13     0.00  -0.00  -0.00
  18   1    -0.01   0.18  -0.23     0.00  -0.10   0.14     0.00  -0.00   0.00
  19   1     0.01  -0.18  -0.23    -0.00   0.04   0.05    -0.00   0.00   0.00
  20   1     0.00  -0.03   0.04     0.01  -0.15   0.20    -0.00  -0.01   0.01
  21   1    -0.00   0.03   0.03    -0.01   0.22   0.29     0.00   0.01   0.01
  22   1     0.01  -0.22   0.30     0.01  -0.20   0.27     0.00  -0.03   0.05
  23   1    -0.01   0.23   0.29    -0.01   0.21   0.26    -0.00   0.03   0.05
  24   1    -0.00   0.03  -0.04    -0.00   0.03  -0.04     0.02  -0.27   0.37
  25   1     0.00   0.00   0.00    -0.00  -0.00   0.00     0.00   0.00  -0.03
  26   1     0.00  -0.03  -0.03     0.00  -0.04  -0.04    -0.01   0.29   0.37
                     61                     62                     63
                        a                      a                      a 
 Frequencies --  3029.1032              2970.9502              2970.8678
 Red. masses --    99.0000                99.0000                99.0000
 Frc consts  --    99.0000                99.0000                99.0000
 IR Inten    --    99.0000                99.0000                99.0000
 Raman Activ --     0.0000                 0.0000                 0.0000
 Depolar     --     0.0000                 0.0000                 0.0000
 Atom AN      X      Y      Z        X      Y      Z        X      Y      Z
   1   6     0.00   0.01  -0.20     0.00   0.01   0.00    -0.00  -0.00   0.00
   2   6     0.00   0.00  -0.03    -0.00   0.01  -0.02    -0.00   0.06  -0.00
   3   6     0.00   0.00  -0.01     0.00  -0.11  -0.02     0.00  -0.04  -0.00
   4   6    -0.00   0.00  -0.00    -0.00   0.09  -0.01     0.01  -0.12  -0.00
   5   6     0.00  -0.00  -0.00    -0.00   0.08   0.01    -0.01   0.13   0.00
   6   6    -0.00  -0.00  -0.01     0.00  -0.11   0.02    -0.00   0.03   0.00
   7   6    -0.00  -0.00  -0.03    -0.00   0.01   0.02     0.00  -0.06   0.00
   8   6    -0.00  -0.01  -0.21     0.00   0.01  -0.00     0.00   0.00  -0.00
   9   1     0.01  -0.29   0.37    -0.00  -0.00   0.00    -0.00   0.01  -0.01
  10   1    -0.02   0.27   0.36     0.00  -0.01  -0.02    -0.00   0.00   0.01
  11   1    -0.01  -0.00  -0.03    -0.01  -0.00   0.00     0.01   0.01   0.00
  12   1    -0.00  -0.04   0.05     0.00  -0.06   0.08     0.00  -0.12   0.17
  13   1    -0.00   0.03   0.05    -0.00   0.00  -0.00     0.00  -0.10  -0.16
  14   1    -0.00  -0.01   0.02    -0.01   0.18  -0.28     0.00   0.06  -0.08
  15   1     0.00   0.01   0.02    -0.01   0.23   0.36    -0.00   0.06   0.10
  16   1     0.00  -0.01   0.01     0.01  -0.18   0.27    -0.01   0.23  -0.35
  17   1    -0.00   0.01   0.01     0.01  -0.15  -0.24    -0.01   0.23   0.36
  18   1     0.00  -0.01   0.01     0.01  -0.14   0.21     0.01  -0.24   0.37
  19   1    -0.00   0.01   0.01     0.01  -0.16  -0.25     0.01  -0.24  -0.37
  20   1    -0.00  -0.01   0.02    -0.01   0.24  -0.37    -0.00  -0.04   0.07
  21   1     0.00   0.01   0.02    -0.01   0.18   0.28    -0.00  -0.05  -0.08
  22   1     0.00  -0.03   0.05    -0.00  -0.01   0.01    -0.01   0.11  -0.17
  23   1    -0.00   0.04   0.05     0.00  -0.07  -0.09    -0.00   0.11   0.16
  24   1     0.02  -0.28   0.38     0.00  -0.01   0.01     0.00  -0.01   0.01
  25   1     0.01   0.00  -0.03    -0.01  -0.00  -0.00    -0.01  -0.01   0.00
  26   1    -0.01   0.31   0.39    -0.00  -0.00  -0.00     0.00  -0.01  -0.01
                     64                     65                     66
                        a                      a                      a 
 Frequencies --  2975.7492              2974.6336              3031.2119
 Red. masses --    99.0000                99.0000                99.0000
 Frc consts  --    99.0000                99.0000                99.0000
 IR Inten    --    99.0000                99.0000                99.0000
 Raman Activ --     0.0000                 0.0000                 0.0000
 Depolar     --     0.0000                 0.0000                 0.0000
 Atom AN      X      Y      Z        X      Y      Z        X      Y      Z
   1   6    -0.01  -0.01  -0.00     0.00  -0.01   0.00    -0.09  -0.18  -0.01
   2   6    -0.01   0.12   0.00     0.00  -0.05  -0.01    -0.00  -0.02  -0.00
   3   6     0.00  -0.03   0.00    -0.00   0.12  -0.00    -0.00  -0.01  -0.00
   4   6     0.00  -0.07   0.00     0.00  -0.05  -0.01     0.00  -0.00  -0.00
   5   6     0.00  -0.07   0.00    -0.00   0.05  -0.01    -0.00   0.00  -0.00
   6   6     0.00  -0.03   0.00     0.00  -0.12  -0.01     0.00   0.01  -0.00
   7   6    -0.01   0.12  -0.00    -0.00   0.05  -0.01     0.00   0.02  -0.00
   8   6    -0.01  -0.01   0.00    -0.00   0.01   0.00     0.09   0.18  -0.01
   9   1    -0.00   0.01  -0.02     0.00   0.01  -0.01    -0.02   0.18  -0.28
  10   1    -0.00   0.01   0.02     0.00   0.00   0.01    -0.03   0.18   0.30
  11   1     0.02   0.02   0.00    -0.00  -0.00   0.00     0.38   0.29   0.01
  12   1     0.01  -0.23   0.34    -0.00   0.09  -0.13    -0.00   0.03  -0.04
  13   1     0.01  -0.23  -0.36    -0.00   0.10   0.15    -0.00   0.03   0.05
  14   1    -0.00   0.06  -0.10     0.01  -0.25   0.36     0.00   0.02  -0.03
  15   1    -0.00   0.05   0.09     0.01  -0.22  -0.35     0.00   0.02   0.03
  16   1    -0.00   0.13  -0.19    -0.00   0.09  -0.13    -0.00   0.00  -0.00
  17   1    -0.00   0.12   0.18    -0.00   0.11   0.16    -0.00   0.00   0.00
  18   1    -0.00   0.12  -0.19     0.00  -0.11   0.16     0.00  -0.00   0.00
  19   1    -0.00   0.12   0.19     0.00  -0.09  -0.13     0.00  -0.00  -0.00
  20   1    -0.00   0.06  -0.09    -0.01   0.22  -0.35    -0.00  -0.02   0.03
  21   1    -0.00   0.06   0.09    -0.01   0.25   0.37    -0.00  -0.02  -0.03
  22   1     0.01  -0.22   0.35     0.00  -0.10   0.15     0.00  -0.03   0.05
  23   1     0.01  -0.24  -0.35     0.00  -0.08  -0.13     0.00  -0.03  -0.04
  24   1    -0.00   0.01  -0.02    -0.00  -0.00   0.01     0.03  -0.17   0.29
  25   1     0.02   0.02  -0.00     0.00   0.00   0.00    -0.37  -0.28   0.01
  26   1    -0.00   0.01   0.02    -0.00  -0.01  -0.01     0.02  -0.17  -0.27
                     67                     68                     69
                        a                      a                      a 
 Frequencies --  3031.4079              2977.0494              2981.3719
 Red. masses --    99.0000                99.0000                99.0000
 Frc consts  --    99.0000                99.0000                99.0000
 IR Inten    --    99.0000                99.0000                99.0000
 Raman Activ --     0.0000                 0.0000                 0.0000
 Depolar     --     0.0000                 0.0000                 0.0000
 Atom AN      X      Y      Z        X      Y      Z        X      Y      Z
   1   6    -0.09  -0.18  -0.01    -0.00  -0.00   0.02    -0.01  -0.02  -0.00
   2   6    -0.00  -0.02  -0.00    -0.00   0.01  -0.09    -0.00   0.12   0.00
   3   6     0.00  -0.01  -0.00     0.00  -0.00  -0.13    -0.00   0.07   0.00
   4   6     0.00  -0.01  -0.00    -0.00   0.00  -0.15    -0.00   0.04   0.00
   5   6     0.00  -0.01   0.00     0.00  -0.01  -0.15     0.00  -0.04   0.00
   6   6     0.00  -0.01   0.00    -0.00   0.00  -0.13     0.00  -0.07   0.00
   7   6    -0.00  -0.02   0.00    -0.00  -0.00  -0.09     0.00  -0.12   0.00
   8   6    -0.10  -0.18   0.01     0.00   0.00   0.02     0.01   0.02  -0.00
   9   1    -0.02   0.17  -0.27    -0.00   0.03  -0.04    -0.00   0.03  -0.04
  10   1    -0.03   0.17   0.29     0.00  -0.03  -0.04    -0.00   0.03   0.04
  11   1     0.38   0.28   0.01     0.00   0.00   0.00     0.04   0.03   0.00
  12   1    -0.00   0.03  -0.05     0.00  -0.14   0.18     0.01  -0.23   0.34
  13   1    -0.00   0.03   0.05    -0.00   0.11   0.15     0.01  -0.22  -0.35
  14   1     0.00   0.02  -0.03     0.01  -0.16   0.21     0.00  -0.12   0.18
  15   1     0.00   0.02   0.03    -0.01   0.18   0.25     0.01  -0.12  -0.19
  16   1    -0.00   0.01  -0.01     0.01  -0.20   0.26     0.00  -0.07   0.11
  17   1    -0.00   0.01   0.01    -0.01   0.18   0.24     0.00  -0.08  -0.12
  18   1    -0.00   0.01  -0.01     0.01  -0.18   0.24    -0.00   0.08  -0.12
  19   1    -0.00   0.01   0.01    -0.01   0.20   0.26    -0.00   0.07   0.11
  20   1     0.00   0.02  -0.03     0.01  -0.18   0.24    -0.01   0.12  -0.19
  21   1     0.00   0.02   0.03    -0.01   0.16   0.21    -0.00   0.12   0.18
  22   1    -0.00   0.03  -0.05     0.00  -0.12   0.16    -0.01   0.22  -0.35
  23   1    -0.00   0.03   0.05    -0.00   0.14   0.17    -0.01   0.23   0.34
  24   1    -0.03   0.17  -0.29    -0.00   0.03  -0.04     0.00  -0.03   0.04
  25   1     0.39   0.29  -0.01    -0.00  -0.00   0.00    -0.04  -0.03   0.00
  26   1    -0.02   0.18   0.28     0.00  -0.03  -0.04     0.00  -0.03  -0.04
                     70                     71                     72
                        a                      a                      a 
 Frequencies --  2987.8937              3036.8263              3037.2288
 Red. masses --    99.0000                99.0000                99.0000
 Frc consts  --    99.0000                99.0000                99.0000
 IR Inten    --    99.0000                99.0000                99.0000
 Raman Activ --     0.0000                 0.0000                 0.0000
 Depolar     --     0.0000                 0.0000                 0.0000
 Atom AN      X      Y      Z        X      Y      Z        X      Y      Z
   1   6    -0.01  -0.02  -0.00     0.10  -0.03  -0.00    -0.11   0.02   0.00
   2   6    -0.00   0.07   0.00     0.00  -0.00  -0.00    -0.00   0.00   0.00
   3   6    -0.00   0.09   0.00    -0.00  -0.00  -0.00     0.00   0.00   0.00
   4   6    -0.00   0.10   0.00     0.00  -0.00  -0.00    -0.00  -0.00   0.00
   5   6    -0.00   0.10   0.00     0.00  -0.00   0.00     0.00   0.00   0.00
   6   6    -0.00   0.09  -0.00    -0.00  -0.00   0.00    -0.00  -0.00   0.00
   7   6    -0.00   0.07  -0.00     0.00  -0.00   0.00     0.00  -0.00   0.00
   8   6    -0.01  -0.02   0.00     0.10  -0.03   0.00     0.11  -0.02   0.00
   9   1    -0.00   0.03  -0.04     0.00   0.21  -0.29    -0.00  -0.20   0.28
  10   1    -0.00   0.03   0.04    -0.00   0.20   0.30    -0.00  -0.20  -0.29
  11   1     0.04   0.03   0.00    -0.38  -0.31  -0.01     0.38   0.31   0.01
  12   1     0.00  -0.13   0.20     0.00   0.00  -0.01    -0.00  -0.00   0.00
  13   1     0.00  -0.13  -0.20     0.00   0.00   0.01    -0.00  -0.00  -0.00
  14   1     0.01  -0.15   0.23     0.00   0.00  -0.01    -0.00  -0.01   0.01
  15   1     0.01  -0.15  -0.23     0.00   0.00   0.01    -0.00  -0.00  -0.01
  16   1     0.01  -0.18   0.27    -0.00   0.00  -0.00     0.00   0.00  -0.00
  17   1     0.01  -0.17  -0.27    -0.00   0.00   0.00     0.00   0.00   0.00
  18   1     0.01  -0.17   0.27    -0.00   0.00  -0.00    -0.00  -0.00   0.00
  19   1     0.01  -0.17  -0.27    -0.00   0.00   0.00    -0.00  -0.00  -0.00
  20   1     0.01  -0.15   0.23     0.00   0.00  -0.01     0.00   0.01  -0.01
  21   1     0.01  -0.15  -0.23     0.00   0.00   0.01     0.00   0.01   0.01
  22   1     0.00  -0.13   0.20     0.00   0.00  -0.01     0.00   0.00  -0.00
  23   1     0.00  -0.13  -0.20     0.00   0.00   0.01     0.00   0.00   0.00
  24   1    -0.00   0.03  -0.04    -0.00   0.20  -0.29     0.00   0.20  -0.29
  25   1     0.04   0.03  -0.00    -0.37  -0.31   0.01    -0.38  -0.32   0.01
  26   1    -0.00   0.03   0.04     0.00   0.21   0.28     0.00   0.21   0.28
