      -----------------------------------------------------------      
     |                   =====================                   |     
     |                           x T B                           |     
     |                   =====================                   |     
     |                         S. Grimme                         |     
     |          Mulliken Center for Theoretical Chemistry        |     
     |                    University of Bonn                     |     
      -----------------------------------------------------------      

   * xtb version 6.6.1 (8d0f1dd) compiled by 'stahn@M-Bot' on 2023-08-01

   xtb is free software: you can redistribute it and/or modify it under
   the terms of the GNU Lesser General Public License as published by
   the Free Software Foundation, either version 3 of the License, or
   (at your option) any later version.
   
   xtb is distributed in the hope that it will be useful,
   but WITHOUT ANY WARRANTY; without even the implied warranty of
   MERCHANTABILITY or FITNESS FOR A PARTICULAR PURPOSE.  See the
   GNU Lesser General Public License for more details.
   
   Cite this work as:
   * C. Bannwarth, E. Caldeweyher, S. Ehlert, A. Hansen, P. Pracht,
     J. Seibert, S. Spicher, S. Grimme, WIREs Comput. Mol. Sci., 2020, 11,
     e01493. DOI: 10.1002/wcms.1493
   
   for GFN2-xTB:
   * C. Bannwarth, S. Ehlert and S. Grimme., J. Chem. Theory Comput., 2019,
     15, 1652-1671. DOI: 10.1021/acs.jctc.8b01176
   for GFN1-xTB:
   * S. Grimme, C. Bannwarth, P. Shushkov, J. Chem. Theory Comput., 2017,
     13, 1989-2009. DOI: 10.1021/acs.jctc.7b00118
   for GFN0-xTB:
   * P. Pracht, E. Caldeweyher, S. Ehlert, S. Grimme, ChemRxiv, 2019, preprint.
     DOI: 10.26434/chemrxiv.8326202.v1
   for GFN-FF:
   * S. Spicher and S. Grimme, Angew. Chem. Int. Ed., 2020, 59, 15665-15673.
     DOI: 10.1002/anie.202004239
   
   for ALPB and GBSA implicit solvation:
   * S. Ehlert, M. Stahn, S. Spicher, S. Grimme, J. Chem. Theory Comput.,
     2021, 17, 4250-4261. DOI: 10.1021/acs.jctc.1c00471
   
   for DFT-D4:
   * E. Caldeweyher, C. Bannwarth and S. Grimme, J. Chem. Phys., 2017,
     147, 034112. DOI: 10.1063/1.4993215
   * E. Caldeweyher, S. Ehlert, A. Hansen, H. Neugebauer, S. Spicher,
     C. Bannwarth and S. Grimme, J. Chem. Phys., 2019, 150, 154122.
     DOI: 10.1063/1.5090222
   * E. Caldeweyher, J.-M. Mewes, S. Ehlert and S. Grimme, Phys. Chem. Chem. Phys.
     2020, 22, 8499-8512. DOI: 10.1039/D0CP00502A
   
   for sTDA-xTB:
   * S. Grimme and C. Bannwarth, J. Chem. Phys., 2016, 145, 054103.
     DOI: 10.1063/1.4959605
   
   in the mass-spec context:
   * V. Asgeirsson, C. Bauer and S. Grimme, Chem. Sci., 2017, 8, 4879.
     DOI: 10.1039/c7sc00601b
   * J. Koopman and S. Grimme, ACS Omega 2019, 4, 12, 15120-15133.
     DOI: 10.1021/acsomega.9b02011
   
   for metadynamics refer to:
   * S. Grimme, J. Chem. Theory Comput., 2019, 155, 2847-2862
     DOI: 10.1021/acs.jctc.9b00143
   
   for SPH calculations refer to:
   * S. Spicher and S. Grimme, J. Chem. Theory Comput., 2021, 17, 1701-1714
     DOI: 10.1021/acs.jctc.0c01306
   
   with help from (in alphabetical order)
   P. Atkinson, C. Bannwarth, F. Bohle, G. Brandenburg, E. Caldeweyher
   M. Checinski, S. Dohm, S. Ehlert, S. Ehrlich, I. Gerasimov, C. Hölzer
   A. Katbashev, J. Koopman, C. Lavigne, S. Lehtola, F. März, M. Müller,
   F. Musil, H. Neugebauer, J. Pisarek, C. Plett, P. Pracht, F. Pultar,
   J. Seibert, P. Shushkov, S. Spicher, M. Stahn, M. Steiner, T. Strunk,
   J. Stückrath, T. Rose, and J. Unsleber
   
 * started run on 2024/04/23 at 12:10:21.582     

           -------------------------------------------------
          |                Calculation Setup                |
           -------------------------------------------------

          program call               : xtb unfolded.xyz --gfn 2 --ohess -P 4
          coordinate file            : unfolded.xyz
          omp threads                :                     4

   ID    Z sym.   atoms
    1    6 C      1-8
    2    1 H      9-26

           -------------------------------------------------
          |                 G F N 2 - x T B                 |
           -------------------------------------------------

        Reference                      10.1021/acs.jctc.8b01176
      * Hamiltonian:
        H0-scaling (s, p, d)           1.850000    2.230000    2.230000
        zeta-weighting                 0.500000
      * Dispersion:
        s8                             2.700000
        a1                             0.520000
        a2                             5.000000
        s9                             5.000000
      * Repulsion:
        kExp                           1.500000    1.000000
        rExp                           1.000000
      * Coulomb:
        alpha                          2.000000
        third order                    shell-resolved
        anisotropic                    true
        a3                             3.000000
        a5                             4.000000
        cn-shift                       1.200000
        cn-exp                         4.000000
        max-rad                        5.000000


          ...................................................
          :                      SETUP                      :
          :.................................................:
          :  # basis functions                  50          :
          :  # atomic orbitals                  50          :
          :  # shells                           34          :
          :  # electrons                        50          :
          :  max. iterations                   250          :
          :  Hamiltonian                  GFN2-xTB          :
          :  restarted?                      false          :
          :  GBSA solvation                  false          :
          :  PC potential                    false          :
          :  electronic temp.          300.0000000     K    :
          :  accuracy                    1.0000000          :
          :  -> integral cutoff          0.2500000E+02      :
          :  -> integral neglect         0.1000000E-07      :
          :  -> SCF convergence          0.1000000E-05 Eh   :
          :  -> wf. convergence          0.1000000E-03 e    :
          :  Broyden damping             0.4000000          :
          ...................................................

 iter      E             dE          RMSdq      gap      omega  full diag
   1    -26.6358540 -0.266359E+02  0.260E+00   12.37       0.0  T
   2    -26.7064373 -0.705833E-01  0.143E+00   12.29       1.0  T
   3    -26.7073078 -0.870526E-03  0.757E-01   12.30       1.0  T
   4    -26.7075012 -0.193337E-03  0.864E-02   12.33       1.0  T
   5    -26.7075092 -0.799415E-05  0.465E-02   12.34       1.0  T
   6    -26.7075105 -0.135211E-05  0.196E-03   12.34      10.0  T
   7    -26.7075106 -0.210855E-07  0.904E-04   12.34      21.7  T
   8    -26.7075106 -0.120881E-08  0.242E-04   12.34      81.2  T

   *** convergence criteria satisfied after 8 iterations ***

         #    Occupation            Energy/Eh            Energy/eV
      -------------------------------------------------------------
         1        2.0000           -0.6213154             -16.9069
       ...           ...                  ...                  ...
        19        2.0000           -0.4424219             -12.0389
        20        2.0000           -0.4334920             -11.7959
        21        2.0000           -0.4287005             -11.6655
        22        2.0000           -0.4255640             -11.5802
        23        2.0000           -0.4178089             -11.3692
        24        2.0000           -0.4166047             -11.3364
        25        2.0000           -0.4143945             -11.2762 (HOMO)
        26                          0.0389703               1.0604 (LUMO)
        27                          0.0943924               2.5685
        28                          0.1093082               2.9744
        29                          0.1160846               3.1588
        30                          0.1216875               3.3113
       ...                                ...                  ...
        50                          0.3054803               8.3125
      -------------------------------------------------------------
                  HL-Gap            0.4533647 Eh           12.3367 eV
             Fermi-level           -0.1877121 Eh           -5.1079 eV

 SCC (total)                   0 d,  0 h,  0 min,  0.039 sec
 SCC setup                      ...        0 min,  0.002 sec (  4.623%)
 Dispersion                     ...        0 min,  0.001 sec (  2.809%)
 classical contributions        ...        0 min,  0.000 sec (  0.791%)
 integral evaluation            ...        0 min,  0.004 sec (  9.954%)
 iterations                     ...        0 min,  0.027 sec ( 69.830%)
 molecular gradient             ...        0 min,  0.004 sec ( 10.201%)
 printout                       ...        0 min,  0.001 sec (  1.531%)

         :::::::::::::::::::::::::::::::::::::::::::::::::::::
         ::                     SUMMARY                     ::
         :::::::::::::::::::::::::::::::::::::::::::::::::::::
         :: total energy             -26.321046124026 Eh    ::
         :: gradient norm              0.025798729705 Eh/a0 ::
         :: HOMO-LUMO gap             12.336682224914 eV    ::
         ::.................................................::
         :: SCC energy               -26.707510553985 Eh    ::
         :: -> isotropic ES            0.004521501246 Eh    ::
         :: -> anisotropic ES          0.009019717199 Eh    ::
         :: -> anisotropic XC          0.016178397481 Eh    ::
         :: -> dispersion             -0.014767656269 Eh    ::
         :: repulsion energy           0.386558936576 Eh    ::
         :: add. restraining           0.000000000000 Eh    ::
         :: total charge              -0.000000000000 e     ::
         :::::::::::::::::::::::::::::::::::::::::::::::::::::

      ----------------------------------------------------------- 
     |                   =====================                   |
     |                        A N C O P T                        |
     |                   =====================                   |
     |               Approximate Normal Coordinate               |
     |                Rational Function Optimizer                |
      ----------------------------------------------------------- 

          ...................................................
          :                      SETUP                      :
          :.................................................:
          :   optimization level            normal          :
          :   max. optcycles                   200          :
          :   ANC micro-cycles                  20          :
          :   degrees of freedom                72          :
          :.................................................:
          :   RF solver                   davidson          :
          :   write xtbopt.log                true          :
          :   linear?                        false          :
          :   energy convergence         0.5000000E-05 Eh   :
          :   grad. convergence          0.1000000E-02 Eh/α :
          :   maxmium RF displ.          2.0000000          :
          :   Hlow (freq-cutoff)         0.2000000E-01      :
          :   Hmax (freq-cutoff)         5.0000000          :
          :   S6 in model hess.         70.0000000          :
          ...................................................

generating ANC from model Hessian ...
Using Lindh-Hessian (1995)
 Shifting diagonal of input Hessian by   1.854868121731813E-002
 Lowest  eigenvalues of input Hessian
    0.000000    0.000000    0.000000    0.000000    0.000000    0.000000
    0.020000    0.020466    0.023052    0.023488    0.025784    0.025867
    0.027286    0.028120    0.032682    0.033074    0.035449    0.043373
 Highest eigenvalues
    1.180144    1.218172    1.227025    1.251765    1.293976    1.332842
 

........................................................................
.............................. CYCLE    1 ..............................
........................................................................

 iter      E             dE          RMSdq      gap      omega  full diag
   1    -26.7075106 -0.267075E+02  0.778E-05   12.34       0.0  T
   2    -26.7075106 -0.672529E-11  0.442E-05   12.34     443.8  T
   3    -26.7075106 -0.106226E-11  0.881E-06   12.34    2225.3  T
     SCC iter.                  ...        0 min,  0.003 sec
     gradient                   ...        0 min,  0.002 sec
 * total energy  :   -26.3210461 Eh     change       -0.1047056E-09 Eh
   gradient norm :     0.0257991 Eh/α   predicted     0.0000000E+00 (-100.00%)
   displ. norm   :     0.1484146 α      lambda       -0.2074603E-02
   maximum displ.:     0.1034260 α      in ANC's #31, #8, #21, ...

........................................................................
.............................. CYCLE    2 ..............................
........................................................................

 iter      E             dE          RMSdq      gap      omega  full diag
   1    -26.7142546 -0.267143E+02  0.147E-01   12.48       0.0  T
   2    -26.7142579 -0.330585E-05  0.843E-02   12.48       1.0  T
   3    -26.7142584 -0.588765E-06  0.381E-03   12.48       5.1  T
   4    -26.7142585 -0.344406E-07  0.148E-03   12.48      13.3  T
   5    -26.7142585 -0.121666E-08  0.720E-04   12.48      27.3  T
   6    -26.7142585 -0.542833E-09  0.339E-05   12.48     577.8  T
     SCC iter.                  ...        0 min,  0.003 sec
     gradient                   ...        0 min,  0.002 sec
 * total energy  :   -26.3224080 Eh     change       -0.1361860E-02 Eh
   gradient norm :     0.0116240 Eh/α   predicted    -0.1060154E-02 ( -22.15%)
   displ. norm   :     0.0830309 α      lambda       -0.3803375E-03
   maximum displ.:     0.0569351 α      in ANC's #8, #31, #5, ...

........................................................................
.............................. CYCLE    3 ..............................
........................................................................

 iter      E             dE          RMSdq      gap      omega  full diag
   1    -26.7191074 -0.267191E+02  0.670E-02   12.55       0.0  T
   2    -26.7191095 -0.210892E-05  0.377E-02   12.55       1.0  T
   3    -26.7191096 -0.837850E-07  0.401E-03   12.55       4.9  T
   4    -26.7191096 -0.234163E-07  0.732E-04   12.55      26.8  T
   5    -26.7191096 -0.158919E-08  0.411E-04   12.55      47.7  T
     SCC iter.                  ...        0 min,  0.002 sec
     gradient                   ...        0 min,  0.002 sec
 * total energy  :   -26.3226158 Eh     change       -0.2078430E-03 Eh
   gradient norm :     0.0018622 Eh/α   predicted    -0.1916010E-03 (  -7.81%)
   displ. norm   :     0.0328335 α      lambda       -0.1544675E-04
   maximum displ.:     0.0255862 α      in ANC's #8, #5, #7, ...

........................................................................
.............................. CYCLE    4 ..............................
........................................................................

 iter      E             dE          RMSdq      gap      omega  full diag
   1    -26.7204418 -0.267204E+02  0.139E-02   12.57       0.0  T
   2    -26.7204419 -0.160548E-06  0.779E-03   12.57       2.5  T
   3    -26.7204419 -0.601264E-08  0.121E-03   12.57      16.2  T
   4    -26.7204419 -0.143115E-08  0.246E-04   12.57      79.6  T
   5    -26.7204419 -0.146517E-09  0.131E-04   12.57     150.0  T
     SCC iter.                  ...        0 min,  0.002 sec
     gradient                   ...        0 min,  0.002 sec
 * total energy  :   -26.3226281 Eh     change       -0.1225033E-04 Eh
   gradient norm :     0.0011881 Eh/α   predicted    -0.7731314E-05 ( -36.89%)
   displ. norm   :     0.0331538 α      lambda        0.1281174E-04
   maximum displ.:     0.0257683 α      in ANC's #8, #5, #7, ...

........................................................................
.............................. CYCLE    5 ..............................
........................................................................

 iter      E             dE          RMSdq      gap      omega  full diag
   1    -26.7217544 -0.267218E+02  0.140E-02   12.59       0.0  T
   2    -26.7217545 -0.159703E-06  0.783E-03   12.59       2.5  T
   3    -26.7217545 -0.611945E-08  0.120E-03   12.59      16.3  T
   4    -26.7217545 -0.143248E-08  0.248E-04   12.59      79.2  T
   5    -26.7217545 -0.145853E-09  0.131E-04   12.59     149.2  T
     SCC iter.                  ...        0 min,  0.002 sec
     gradient                   ...        0 min,  0.002 sec
 * total energy  :   -26.3226185 Eh     change        0.9616920E-05 Eh
   gradient norm :     0.0038097 Eh/α   predicted     0.6408406E-05 ( -33.36%)
   displ. norm   :     0.0150883 α      lambda       -0.1577220E-04
   maximum displ.:     0.0127796 α      in ANC's #8, #5, #70, ...

........................................................................
.............................. CYCLE    6 ..............................
........................................................................

 iter      E             dE          RMSdq      gap      omega  full diag
   1    -26.7207526 -0.267208E+02  0.876E-03   12.59       0.0  T
   2    -26.7207527 -0.108976E-06  0.477E-03   12.59       4.1  T
   3    -26.7207527 -0.168335E-08  0.107E-03   12.59      18.3  T
   4    -26.7207527 -0.773234E-09  0.139E-04   12.59     140.6  T
   5    -26.7207527 -0.987157E-10  0.728E-05   12.59     269.3  T
     SCC iter.                  ...        0 min,  0.002 sec
     gradient                   ...        0 min,  0.002 sec
 * total energy  :   -26.3226292 Eh     change       -0.1072682E-04 Eh
   gradient norm :     0.0015294 Eh/α   predicted    -0.7888466E-05 ( -26.46%)
   displ. norm   :     0.0105372 α      lambda       -0.3660609E-05
   maximum displ.:     0.0093556 α      in ANC's #8, #3, #70, ...

........................................................................
.............................. CYCLE    7 ..............................
........................................................................

 iter      E             dE          RMSdq      gap      omega  full diag
   1    -26.7199317 -0.267199E+02  0.652E-03   12.58       0.0  T
   2    -26.7199318 -0.907675E-07  0.353E-03   12.58       5.6  T
   3    -26.7199318 -0.119218E-08  0.988E-04   12.58      19.9  T
   4    -26.7199318 -0.573834E-09  0.124E-04   12.58     157.7  T
     SCC iter.                  ...        0 min,  0.002 sec
     gradient                   ...        0 min,  0.002 sec
 * total energy  :   -26.3226309 Eh     change       -0.1723233E-05 Eh
   gradient norm :     0.0006104 Eh/α   predicted    -0.1832635E-05 (   6.35%)
   displ. norm   :     0.0111332 α      lambda        0.1458386E-05
   maximum displ.:     0.0094542 α      in ANC's #8, #3, #5, ...

   *** GEOMETRY OPTIMIZATION CONVERGED AFTER 7 ITERATIONS ***

------------------------------------------------------------------------
 total energy gain   :        -0.0015848 Eh       -0.9945 kcal/mol
 total RMSD          :         0.0495806 a0        0.0262 Å
 total power (kW/mol):        -0.5944079 (step)  -79.7925 (real)
------------------------------------------------------------------------

 ANCopt (total)                0 d,  0 h,  0 min,  0.052 sec
 optimizer setup                ...        0 min,  0.001 sec (  2.606%)
 model hessian                  ...        0 min,  0.011 sec ( 21.290%)
 ANC generation                 ...        0 min,  0.001 sec (  1.566%)
 coordinate transformation      ...        0 min,  0.000 sec (  0.169%)
 single point calculation       ...        0 min,  0.037 sec ( 70.305%)
 optimization log               ...        0 min,  0.001 sec (  1.282%)
 hessian update                 ...        0 min,  0.000 sec (  0.275%)
 rational function              ...        0 min,  0.000 sec (  0.872%)

================
 final structure:
================
26
 xtb: 6.6.1 (8d0f1dd)
C           -4.44084156239096        0.26931489423907       -0.00003070143570
C           -3.14995594482958       -0.53985754064379       -0.00892700920641
C           -1.91447142850848        0.35703438590595        0.00775714339878
C           -0.61770519966916       -0.44871650919230        0.00130033200611
C            0.61768018524917        0.44844207030000        0.00197729903474
C            1.91452393753410       -0.35719585596469        0.00651347158076
C            3.14984982943454        0.53992906936462       -0.00965340063774
C            4.44091844928215       -0.26892702478300        0.00097685736339
H           -4.48935162609478        0.92006879706906       -0.87065207800155
H           -4.49683882631015        0.88899965879178        0.89251815065010
H           -5.30667500501814       -0.38884379040871       -0.01531188562038
H           -3.12870453947465       -1.19859759337423        0.86261024785779
H           -3.12404728368201       -1.17149077078639       -0.90018667443404
H           -1.93528007546074        1.01446600288159       -0.86506140959404
H           -1.94134704373510        0.99074073727035        0.89775052043522
H           -0.59250662109736       -1.09860937951196        0.87965857572764
H           -0.59652656176725       -1.09060372831971       -0.88304304781674
H            0.59619457650879        1.09207497266765       -0.88109228883216
H            0.59272612450032        1.09660182158347        0.88162136854599
H            1.94200387632109       -0.99208519109008        0.89564591277719
H            1.93491412285662       -1.01345370849189       -0.86719410339854
H            3.12460421400672        1.17100822481611       -0.90132091643765
H            3.12766411963697        1.19920533384156        0.86145950646282
H            4.49620266052336       -0.88797975381400        0.89400839646553
H            5.30660058963360        0.38943911854490       -0.01390206884049
H            4.49044203255093       -0.92026824089536       -0.86914619805064
           -------------------------------------------------
          |                Final Singlepoint                |
           -------------------------------------------------

          ...................................................
          :                      SETUP                      :
          :.................................................:
          :  # basis functions                  50          :
          :  # atomic orbitals                  50          :
          :  # shells                           34          :
          :  # electrons                        50          :
          :  max. iterations                   250          :
          :  Hamiltonian                  GFN2-xTB          :
          :  restarted?                      false          :
          :  GBSA solvation                  false          :
          :  PC potential                    false          :
          :  electronic temp.          300.0000000     K    :
          :  accuracy                    1.0000000          :
          :  -> integral cutoff          0.2500000E+02      :
          :  -> integral neglect         0.1000000E-07      :
          :  -> SCF convergence          0.1000000E-05 Eh   :
          :  -> wf. convergence          0.1000000E-03 e    :
          :  Broyden damping             0.4000000          :
          ...................................................

 iter      E             dE          RMSdq      gap      omega  full diag
   1    -26.7199318 -0.267199E+02  0.620E-05   12.58       0.0  T
   2    -26.7199318 -0.170175E-11  0.360E-05   12.58     545.1  T
   3    -26.7199318 -0.476064E-12  0.353E-06   12.58    5552.7  T

   *** convergence criteria satisfied after 3 iterations ***

         #    Occupation            Energy/Eh            Energy/eV
      -------------------------------------------------------------
         1        2.0000           -0.6222910             -16.9334
       ...           ...                  ...                  ...
        19        2.0000           -0.4437347             -12.0746
        20        2.0000           -0.4324060             -11.7664
        21        2.0000           -0.4272460             -11.6260
        22        2.0000           -0.4270612             -11.6209
        23        2.0000           -0.4186722             -11.3926
        24        2.0000           -0.4165704             -11.3355
        25        2.0000           -0.4151593             -11.2971 (HOMO)
        26                          0.0472215               1.2850 (LUMO)
        27                          0.1067740               2.9055
        28                          0.1142671               3.1094
        29                          0.1152009               3.1348
        30                          0.1238388               3.3698
       ...                                ...                  ...
        50                          0.3230017               8.7893
      -------------------------------------------------------------
                  HL-Gap            0.4623807 Eh           12.5820 eV
             Fermi-level           -0.1839689 Eh           -5.0060 eV

 SCC (total)                   0 d,  0 h,  0 min,  0.004 sec
 SCC setup                      ...        0 min,  0.000 sec (  5.759%)
 Dispersion                     ...        0 min,  0.000 sec (  1.401%)
 classical contributions        ...        0 min,  0.000 sec (  0.550%)
 integral evaluation            ...        0 min,  0.001 sec ( 12.636%)
 iterations                     ...        0 min,  0.001 sec ( 30.674%)
 molecular gradient             ...        0 min,  0.002 sec ( 41.931%)
 printout                       ...        0 min,  0.000 sec (  6.281%)

         :::::::::::::::::::::::::::::::::::::::::::::::::::::
         ::                     SUMMARY                     ::
         :::::::::::::::::::::::::::::::::::::::::::::::::::::
         :: total energy             -26.322630910318 Eh    ::
         :: gradient norm              0.000610103641 Eh/a0 ::
         :: HOMO-LUMO gap             12.582020079693 eV    ::
         ::.................................................::
         :: SCC energy               -26.719931808557 Eh    ::
         :: -> isotropic ES            0.004811222905 Eh    ::
         :: -> anisotropic ES          0.008711434498 Eh    ::
         :: -> anisotropic XC          0.016416991195 Eh    ::
         :: -> dispersion             -0.014823787211 Eh    ::
         :: repulsion energy           0.397396064245 Eh    ::
         :: add. restraining           0.000000000000 Eh    ::
         :: total charge              -0.000000000000 e     ::
         :::::::::::::::::::::::::::::::::::::::::::::::::::::

           ------------------------------------------------- 
          |                Numerical Hessian                |
           ------------------------------------------------- 
step length          :   0.00500
SCC accuracy         :   0.30000
Hessian scale factor :   1.00000
frozen atoms in %    :   0.00000    0
RMS gradient         :   0.00061
estimated CPU  time      0.10 min
estimated wall time      0.02 min

writing file <hessian>.

 projected vibrational frequencies (cm⁻¹)
eigval :       -0.00    -0.00     0.00     0.00     0.00     0.00
eigval :       44.53    67.10    80.53   101.46   128.65   147.31
eigval :      199.36   233.15   235.37   279.01   341.69   469.52
eigval :      469.60   769.21   774.03   795.36   841.09   903.92
eigval :      933.66   949.28   968.37  1020.26  1044.65  1074.97
eigval :     1097.78  1105.62  1109.12  1123.02  1145.88  1198.99
eigval :     1217.40  1240.21  1249.31  1274.81  1277.97  1285.73
eigval :     1293.20  1296.13  1327.47  1360.40  1377.90  1379.69
eigval :     1416.61  1416.70  1495.96  1496.11  1498.83  1499.62
eigval :     1502.05  1504.75  1505.11  1505.13  1508.07  1508.25
eigval :     2950.97  2953.30  2957.11  2962.79  2970.06  2970.87
eigval :     2970.95  2974.63  2975.75  2977.05  2981.37  2987.89
eigval :     3028.91  3029.10  3031.21  3031.41  3036.83  3037.23
           -------------------------------------------------
          |                Property Printout                |
           -------------------------------------------------

    * Orbital Energies and Occupations

         #    Occupation            Energy/Eh            Energy/eV
      -------------------------------------------------------------
         1        2.0000           -0.6222910             -16.9334
       ...           ...                  ...                  ...
        13        2.0000           -0.4894700             -13.3192
        14        2.0000           -0.4826059             -13.1324
        15        2.0000           -0.4673184             -12.7164
        16        2.0000           -0.4664664             -12.6932
        17        2.0000           -0.4488675             -12.2143
        18        2.0000           -0.4465511             -12.1513
        19        2.0000           -0.4437347             -12.0746
        20        2.0000           -0.4324059             -11.7664
        21        2.0000           -0.4272460             -11.6260
        22        2.0000           -0.4270612             -11.6209
        23        2.0000           -0.4186721             -11.3926
        24        2.0000           -0.4165704             -11.3355
        25        2.0000           -0.4151593             -11.2971 (HOMO)
        26                          0.0472215               1.2850 (LUMO)
        27                          0.1067740               2.9055
        28                          0.1142671               3.1094
        29                          0.1152009               3.1348
        30                          0.1238388               3.3698
        31                          0.1355530               3.6886
        32                          0.1393596               3.7922
        33                          0.1489650               4.0535
        34                          0.1623796               4.4186
        35                          0.1721142               4.6835
        36                          0.1753479               4.7715
       ...                                ...                  ...
        50                          0.3230017               8.7893
      -------------------------------------------------------------
                  HL-Gap            0.4623807 Eh           12.5820 eV
             Fermi-level           -0.1839689 Eh           -5.0060 eV

     #   Z          covCN         q      C6AA      α(0)
     1   6 C        3.752    -0.102    22.509     6.766
     2   6 C        3.801    -0.053    21.521     6.605
     3   6 C        3.803    -0.059    21.632     6.622
     4   6 C        3.803    -0.058    21.619     6.620
     5   6 C        3.803    -0.058    21.619     6.620
     6   6 C        3.803    -0.059    21.632     6.622
     7   6 C        3.801    -0.053    21.522     6.605
     8   6 C        3.752    -0.102    22.509     6.766
     9   1 H        0.925     0.033     2.542     2.493
    10   1 H        0.925     0.033     2.542     2.493
    11   1 H        0.925     0.033     2.550     2.497
    12   1 H        0.924     0.028     2.609     2.526
    13   1 H        0.924     0.028     2.609     2.526
    14   1 H        0.924     0.030     2.592     2.518
    15   1 H        0.924     0.030     2.592     2.518
    16   1 H        0.924     0.028     2.609     2.526
    17   1 H        0.924     0.028     2.609     2.526
    18   1 H        0.924     0.028     2.609     2.526
    19   1 H        0.924     0.028     2.609     2.526
    20   1 H        0.924     0.030     2.592     2.518
    21   1 H        0.924     0.030     2.592     2.518
    22   1 H        0.924     0.028     2.609     2.526
    23   1 H        0.924     0.028     2.609     2.526
    24   1 H        0.925     0.033     2.542     2.493
    25   1 H        0.925     0.033     2.550     2.497
    26   1 H        0.925     0.033     2.542     2.493

 Mol. C6AA /au·bohr⁶  :       4382.140816
 Mol. C8AA /au·bohr⁸  :      90680.398412
 Mol. α(0) /au        :         98.469815


Wiberg/Mayer (AO) data.
largest (>0.10) Wiberg bond orders for each atom

 ---------------------------------------------------------------------------
     #   Z sym  total        # sym  WBO       # sym  WBO       # sym  WBO
 ---------------------------------------------------------------------------
     1   6 C    3.997 --     2 C    1.019    10 H    0.988     9 H    0.988
                            11 H    0.988
     2   6 C    3.998 --     1 C    1.019     3 C    1.008    12 H    0.979
                            13 H    0.979
     3   6 C    3.997 --     2 C    1.008     4 C    1.007    15 H    0.978
                            14 H    0.977
     4   6 C    3.997 --     3 C    1.007     5 C    1.007    16 H    0.978
                            17 H    0.978
     5   6 C    3.997 --     6 C    1.007     4 C    1.007    19 H    0.978
                            18 H    0.978
     6   6 C    3.997 --     7 C    1.008     5 C    1.007    20 H    0.978
                            21 H    0.978
     7   6 C    3.998 --     8 C    1.019     6 C    1.008    22 H    0.979
                            23 H    0.979
     8   6 C    3.997 --     7 C    1.019    24 H    0.988    26 H    0.988
                            25 H    0.988
     9   1 H    0.999 --     1 C    0.988
    10   1 H    0.999 --     1 C    0.988
    11   1 H    0.999 --     1 C    0.988
    12   1 H    0.999 --     2 C    0.979
    13   1 H    0.999 --     2 C    0.979
    14   1 H    0.999 --     3 C    0.977
    15   1 H    0.999 --     3 C    0.978
    16   1 H    0.999 --     4 C    0.978
    17   1 H    0.999 --     4 C    0.978
    18   1 H    0.999 --     5 C    0.978
    19   1 H    0.999 --     5 C    0.978
    20   1 H    0.999 --     6 C    0.978
    21   1 H    0.999 --     6 C    0.978
    22   1 H    0.999 --     7 C    0.979
    23   1 H    0.999 --     7 C    0.979
    24   1 H    0.999 --     8 C    0.988
    25   1 H    0.999 --     8 C    0.988
    26   1 H    0.999 --     8 C    0.988
 ---------------------------------------------------------------------------

Topologies differ in total number of bonds
Writing topology from bond orders to xtbtopo.mol

molecular dipole:
                 x           y           z       tot (Debye)
 q only:        0.000       0.000      -0.000
   full:        0.000       0.000      -0.000       0.000
molecular quadrupole (traceless):
                xx          xy          yy          xz          yz          zz
 q only:        0.538      -0.144      -0.061       0.001       0.000      -0.477
  q+dip:       -2.172       0.282       0.006      -0.000      -0.001       2.166
   full:       -0.869       0.089      -0.055       0.000      -0.000       0.925

           -------------------------------------------------
          |                Geometry Summary                 |
           -------------------------------------------------

      molecular mass/u    :      114.2288207
   center of mass at/Å    :        0.0000005       0.0000084      -0.0000235
  moments of inertia/u·Å² :        0.4732528E+02   0.1015967E+04   0.1038219E+04
rotational constants/cm⁻¹ :        0.3562078E+00   0.1659270E-01   0.1623707E-01

 * 25 selected distances

     #   Z          #   Z                                           value/Å
     1   6 C        2   6 C                                       1.5235568
     2   6 C        3   6 C                                       1.5267992
     3   6 C        4   6 C                                       1.5267217
     4   6 C        5   6 C                                       1.5267847
     5   6 C        6   6 C                                       1.5267211
     6   6 C        7   6 C                                       1.5268022 (max)
     7   6 C        8   6 C                                       1.5235550
     1   6 C        9   1 H                                       1.0880329
     1   6 C       10   1 H                                       1.0880205
     1   6 C       11   1 H                                       1.0876921
     2   6 C       12   1 H                                       1.0926882
     2   6 C       13   1 H                                       1.0926920
     3   6 C       14   1 H                                       1.0929144
     3   6 C       15   1 H                                       1.0928836
     4   6 C       16   1 H                                       1.0929360
     4   6 C       17   1 H                                       1.0929461
     5   6 C       18   1 H                                       1.0929488
     5   6 C       19   1 H                                       1.0929353
     6   6 C       20   1 H                                       1.0928844
     6   6 C       21   1 H                                       1.0929114
     7   6 C       22   1 H                                       1.0926891
     7   6 C       23   1 H                                       1.0926918
     8   6 C       24   1 H                                       1.0880203
     8   6 C       25   1 H                                       1.0876917 (min)
     8   6 C       26   1 H                                       1.0880314

 * 2 distinct bonds (by element types)

   Z      Z             #   av. dist./Å        max./Å        min./Å
   1 H    6 C          18     1.0912005     1.0929488     1.0876917
   6 C    6 C           7     1.5258487     1.5268022     1.5235550

           -------------------------------------------------
          |               Frequency Printout                |
           -------------------------------------------------
 projected vibrational frequencies (cm⁻¹)
eigval :       -0.00    -0.00     0.00     0.00     0.00     0.00
eigval :       44.53    67.10    80.53   101.46   128.65   147.31
eigval :      199.36   233.15   235.37   279.01   341.69   469.52
eigval :      469.60   769.21   774.03   795.36   841.09   903.92
eigval :      933.66   949.28   968.37  1020.26  1044.65  1074.97
eigval :     1097.78  1105.62  1109.12  1123.02  1145.88  1198.99
eigval :     1217.40  1240.21  1249.31  1274.81  1277.97  1285.73
eigval :     1293.20  1296.13  1327.47  1360.40  1377.90  1379.69
eigval :     1416.61  1416.70  1495.96  1496.11  1498.83  1499.62
eigval :     1502.05  1504.75  1505.11  1505.13  1508.07  1508.25
eigval :     2950.97  2953.30  2957.11  2962.79  2970.06  2970.87
eigval :     2970.95  2974.63  2975.75  2977.05  2981.37  2987.89
eigval :     3028.91  3029.10  3031.21  3031.41  3036.83  3037.23
 reduced masses (amu)
   1:  8.18   2:  8.98   3:  9.53   4:  9.63   5:  8.95   6:  9.93   7:  8.95   8:  5.08
   9:  9.22  10:  7.97  11:  5.92  12:  7.20  13:  8.85  14:  2.05  15:  2.27  16:  9.94
  17:  8.60  18:  9.41  19:  8.72  20:  1.59  21:  1.79  22:  2.16  23:  2.56  24:  2.71
  25:  6.27  26:  5.72  27:  2.44  28:  1.68  29: 10.10  30: 10.12  31:  7.77  32:  7.54
  33:  8.90  34:  7.30  35:  8.65  36:  6.71  37:  5.31  38:  3.53  39:  3.87  40:  1.32
  41:  2.75  42:  3.59  43:  1.95  44:  2.28  45:  3.91  46:  4.51  47:  5.24  48:  5.85
  49:  3.18  50:  3.19  51:  1.93  52:  1.87  53:  1.97  54:  1.82  55:  2.02  56:  1.78
  57:  1.53  58:  1.53  59:  1.67  60:  1.64  61:  1.89  62:  1.92  63:  1.96  64:  2.00
  65:  2.02  66:  1.46  67:  1.47  68:  1.44  69:  1.48  70:  2.06  71:  1.51  72:  1.53
  73:  1.96  74:  1.96  75:  1.92  76:  1.93  77:  1.26  78:  1.27
 IR intensities (km·mol⁻¹)
   1:  0.01   2:  0.00   3:  0.01   4:  0.00   5:  0.02   6:  0.00   7:  0.00   8:  0.00
   9:  0.06  10:  0.00  11:  0.00  12:  0.00  13:  0.00  14:  0.01  15:  0.00  16:  0.00
  17:  0.30  18:  0.13  19:  0.00  20: 15.84  21:  0.00  22:  3.65  23:  0.00  24:  2.02
  25:  6.57  26:  0.00  27:  0.00  28:  0.42  29:  0.00  30:  0.65  31:  4.55  32:  0.00
  33:  0.00  34:  3.99  35:  0.00  36:  0.00  37:  0.64  38:  0.46  39:  0.00  40:  0.00
  41:  0.02  42:  0.00  43:  0.10  44:  0.00  45:  1.34  46:  0.00  47:  0.85  48:  0.00
  49:  1.65  50:  0.00  51:  0.15  52:  0.00  53:  0.00  54:  0.20  55:  0.56  56:  0.04
  57:  4.81  58:  0.00  59:  2.30  60:  0.00  61:  0.00  62:  0.22  63:  0.00  64:  4.09
  65:  0.05  66:  0.00  67:  0.33  68:  0.83  69:  1.44  70:276.51  71:  0.26  72:216.10
  73:  0.21  74:121.72  75:  0.21  76:122.10  77: 65.51  78:  0.01
 Raman intensities (amu)
   1:  0.00   2:  0.00   3:  0.00   4:  0.00   5:  0.00   6:  0.00   7:  0.00   8:  0.00
   9:  0.00  10:  0.00  11:  0.00  12:  0.00  13:  0.00  14:  0.00  15:  0.00  16:  0.00
  17:  0.00  18:  0.00  19:  0.00  20:  0.00  21:  0.00  22:  0.00  23:  0.00  24:  0.00
  25:  0.00  26:  0.00  27:  0.00  28:  0.00  29:  0.00  30:  0.00  31:  0.00  32:  0.00
  33:  0.00  34:  0.00  35:  0.00  36:  0.00  37:  0.00  38:  0.00  39:  0.00  40:  0.00
  41:  0.00  42:  0.00  43:  0.00  44:  0.00  45:  0.00  46:  0.00  47:  0.00  48:  0.00
  49:  0.00  50:  0.00  51:  0.00  52:  0.00  53:  0.00  54:  0.00  55:  0.00  56:  0.00
  57:  0.00  58:  0.00  59:  0.00  60:  0.00  61:  0.00  62:  0.00  63:  0.00  64:  0.00
  65:  0.00  66:  0.00  67:  0.00  68:  0.00  69:  0.00  70:  0.00  71:  0.00  72:  0.00
  73:  0.00  74:  0.00  75:  0.00  76:  0.00  77:  0.00  78:  0.00
 output can be read by thermo (or use thermo option).
 writing <g98.out> molden fake output.
 recommended (thermochemical) frequency scaling factor: 1.0
           -------------------------------------------------
          |             Thermodynamic Functions             |
           -------------------------------------------------

Molecule has the following symmetry elements: (i) (C2) (sigma) 
It seems to be the C2h point group
c2h symmetry found (for desy threshold:  0.10E+00) used in thermo

          ...................................................
          :                      SETUP                      :
          :.................................................:
          :  # frequencies                          72      :
          :  # imaginary freq.                       0      :
          :  linear?                             false      :
          :  only rotor calc.                    false      :
          :  symmetry                              c2h      :
          :  rotational number                       2      :
          :  scaling factor                  1.0000000      :
          :  rotor cutoff                   50.0000000 cm⁻¹ :
          :  imag. cutoff                  -20.0000000 cm⁻¹ :
          :.................................................:

    mode    ω/cm⁻¹     T·S(HO)/kcal·mol⁻¹    T·S(FR)/kcal·mol⁻¹   T·S(vib)
   ------------------------------------------------------------------------
       1     44.53    -1.50464 ( 38.62%)    -1.09071 ( 61.38%)    -1.25056
       2     67.10    -1.26315 ( 76.44%)    -0.96930 ( 23.56%)    -1.19391
       3     80.53    -1.15618 ( 87.06%)    -0.91526 ( 12.94%)    -1.12501
       4    101.46    -1.02149 ( 94.43%)    -0.84685 (  5.57%)    -1.01177
       5    128.65    -0.88434 ( 97.77%)    -0.77652 (  2.23%)    -0.88193
       6    147.31    -0.80700 ( 98.69%)    -0.73641 (  1.31%)    -0.80607
       7    199.36    -0.63775 ( 99.61%)    -0.64679 (  0.39%)    -0.63779
       8    233.15    -0.55293 ( 99.79%)    -0.60041 (  0.21%)    -0.55303
       9    235.37    -0.54789 ( 99.80%)    -0.59761 (  0.20%)    -0.54799
      10    279.01    -0.45907 ( 99.90%)    -0.54722 (  0.10%)    -0.45916
   ------------------------------------------------------------------------

   temp. (K)  partition function   enthalpy   heat capacity  entropy
                                   cal/mol     cal/K/mol   cal/K/mol   J/K/mol
 298.15  VIB  0.578E+04             5213.188     31.718     33.468
         ROT  0.270E+06              888.752      2.981     27.833
         INT  0.156E+10             6101.941     34.699     61.301
         TR   0.118E+28             1481.254      4.968     40.096
         TOT                        7583.1947    39.6668   101.3976   424.2476

       T/K    H(0)-H(T)+PV         H(T)/Eh          T*S/Eh         G(T)/Eh
   ------------------------------------------------------------------------
    298.15    0.120846E-01    0.255660E+00    0.481773E-01    0.207483E+00
   ------------------------------------------------------------------------

         :::::::::::::::::::::::::::::::::::::::::::::::::::::
         ::                  THERMODYNAMIC                  ::
         :::::::::::::::::::::::::::::::::::::::::::::::::::::
         :: total free energy         -26.115147915785 Eh   ::
         ::.................................................::
         :: total energy              -26.322630910319 Eh   ::
         :: zero point energy           0.243575675802 Eh   ::
         :: G(RRHO) w/o ZPVE           -0.036092681268 Eh   ::
         :: G(RRHO) contrib.            0.207482994534 Eh   ::
         :::::::::::::::::::::::::::::::::::::::::::::::::::::
 
 normal mode %tage of torsion character
   1:  0.00   2:  0.00   3:  0.00   4:  0.00   5:  0.00   6:  0.00   7:  0.31   8:  0.66
   9:  0.26  10:  0.51  11:  0.71  12:  0.69  13:  0.20  14:  0.89  15:  0.89  16:  0.03
  17:  0.11  18:  0.03  19:  0.06  20:  0.57  21:  0.48  22:  0.51  23:  0.57  24:  0.53
  25:  0.10  26:  0.09  27:  0.47  28:  0.40  29:  0.07  30:  0.04  31:  0.06  32:  0.02
  33:  0.02  34:  0.05  35:  0.06  36:  0.59  37:  0.49  38:  0.07  39:  0.33  40:  0.13
  41:  0.24  42:  0.07  43:  0.09  44:  0.15  45:  0.06  46:  0.06  47:  0.06  48:  0.05
  49:  0.00  50:  0.00  51:  0.65  52:  0.63  53:  0.66  54:  0.61  55:  0.63  56:  0.58
  57:  0.92  58:  0.93  59:  0.84  60:  0.84  61:  0.37  62:  0.39  63:  0.35  64:  0.20
  65:  0.04  66:  0.01  67:  0.01  68:  0.01  69:  0.01  70:  0.01  71:  0.01  72:  0.01
  73:  0.07  74:  0.07  75:  0.03  76:  0.03  77:  0.00  78:  0.00
 recommended # of modes for mode following           4

optimized geometry written to: xtbopt.xyz


           -------------------------------------------------
          | TOTAL ENERGY              -26.322630910319 Eh   |
          | TOTAL ENTHALPY            -26.066970644554 Eh   |
          | TOTAL FREE ENERGY         -26.115147915785 Eh   |
          | GRADIENT NORM               0.000610115071 Eh/α |
          | HOMO-LUMO GAP              12.582020162016 eV   |
           -------------------------------------------------

------------------------------------------------------------------------
 * finished run on 2024/04/23 at 12:10:22.180     
------------------------------------------------------------------------
 total:
 * wall-time:     0 d,  0 h,  0 min,  0.597 sec
 *  cpu-time:     0 d,  0 h,  0 min,  2.181 sec
 * ratio c/w:     3.652 speedup
 SCF:
 * wall-time:     0 d,  0 h,  0 min,  0.040 sec
 *  cpu-time:     0 d,  0 h,  0 min,  0.126 sec
 * ratio c/w:     3.161 speedup
 ANC optimizer:
 * wall-time:     0 d,  0 h,  0 min,  0.064 sec
 *  cpu-time:     0 d,  0 h,  0 min,  0.235 sec
 * ratio c/w:     3.701 speedup
 analytical hessian:
 * wall-time:     0 d,  0 h,  0 min,  0.387 sec
 *  cpu-time:     0 d,  0 h,  0 min,  1.527 sec
 * ratio c/w:     3.942 speedup

