26
 energy: -26.321046124131 gnorm: 0.025799092908 xtb: 6.6.1 (8d0f1dd)
C           -4.46425900000000        0.26526600000000       -0.00067300000000
C           -3.17107500000000       -0.53501600000000       -0.00919000000000
C           -1.92585400000000        0.35293700000000        0.00908800000000
C           -0.62181800000000       -0.44469000000000        0.00119900000000
C            0.62181400000000        0.44427400000000        0.00200700000000
C            1.92599500000000       -0.35316600000000        0.00745700000000
C            3.17091200000000        0.53509300000000       -0.01035200000000
C            4.46427900000000       -0.26476200000000        0.00062100000000
H           -4.52509900000000        0.92721200000000       -0.86718100000000
H           -4.53395000000000        0.89403600000000        0.88950600000000
H           -5.34680300000000       -0.37902300000000       -0.01723100000000
H           -3.14263100000000       -1.21773200000000        0.85092000000000
H           -3.13679800000000       -1.18943000000000       -0.89090100000000
H           -1.94634400000000        1.03364400000000       -0.85121100000000
H           -1.95231200000000        1.00747200000000        0.88929300000000
H           -0.59546200000000       -1.11671700000000        0.86808000000000
H           -0.60033600000000       -1.10736500000000       -0.87298500000000
H            0.59981200000000        1.10917000000000       -0.87044200000000
H            0.59585900000000        1.11416700000000        0.87046700000000
H            1.95328100000000       -1.00902700000000        0.88663300000000
H            1.94606300000000       -1.03241600000000       -0.85389500000000
H            3.13745700000000        1.18840700000000       -0.89284100000000
H            3.14131700000000        1.21871200000000        0.84900000000000
H            4.53287500000000       -0.89285400000000        0.89144300000000
H            5.34664100000000        0.37990500000000       -0.01516900000000
H            4.52650900000000       -0.92740100000000       -0.86536700000000
26
 energy: -26.322407983737 gnorm: 0.011624047389 xtb: 6.6.1 (8d0f1dd)
C           -4.45259864637062        0.26776793151760       -0.00047337070811
C           -3.16145708036751       -0.53642814722923       -0.00917198153823
C           -1.92089121168770        0.35599505673697        0.00881736763092
C           -0.62044071430410       -0.44612749545235        0.00125330060530
C            0.62041631773702        0.44573931664805        0.00204240186059
C            1.92098700685756       -0.35621798862616        0.00724690234954
C            3.16130837361466        0.53652756318442       -0.01027217625622
C            4.45265822652285       -0.26727825659030        0.00076092716094
H           -4.50871831520708        0.92232246593744       -0.87011631236479
H           -4.51747368280023        0.88941180748671        0.89238191235049
H           -5.32294249633302       -0.38786324259609       -0.01705134264332
H           -3.14006713770883       -1.20350952005875        0.85967595645608
H           -3.13433858483665       -1.17507342773365       -0.89900312253193
H           -1.94251872321591        1.02138949383615       -0.86090789582319
H           -1.94856325386961        0.99510595977443        0.89783533775502
H           -0.59519480372186       -1.10345589886122        0.87702504107632
H           -0.59996194633560       -1.09412815213606       -0.88157006296237
H            0.59949964808109        1.09587708352368       -0.87919660283105
H            0.59552522903784        1.10096086989741        0.87938156982001
H            1.94944596489896       -0.99668113266506        0.89526320808435
H            1.94212721110223       -1.02023541091368       -0.86350686172520
H            3.13501217906656        1.17422146268717       -0.90078660321309
H            3.13876254219508        1.20449220714015        0.85786962438889
H            4.51649296591709       -0.88821676731061        0.89419555588731
H            5.32283127989293        0.38860994361387       -0.01511487917105
H            4.51017265183487       -0.92250972181088       -0.86830189365720
26
 energy: -26.322615826764 gnorm: 0.001862189006 xtb: 6.6.1 (8d0f1dd)
C           -4.44520578942057        0.26921671725425       -0.00033577323320
C           -3.15368207645780       -0.53811344013479       -0.00914653177545
C           -1.91660030694542        0.35778764171468        0.00859260020648
C           -0.61889749297443       -0.44790799684012        0.00125325673635
C            0.61886374384363        0.44755389085405        0.00201953229218
C            1.91666841896267       -0.35799335515166        0.00709929431474
C            3.15355415644393        0.53819930988301       -0.01016434444262
C            4.44529537064805       -0.26875394410940        0.00083961349214
H           -4.49676991837560        0.92046180918095       -0.87061213977566
H           -4.50525083753917        0.88795442023193        0.89280089680780
H           -5.30949967022834       -0.39155499042575       -0.01668379631504
H           -3.13417615678022       -1.19737835458503        0.86235594242079
H           -3.12874461729646       -1.16914959484651       -0.90116976802260
H           -1.93837728584605        1.01578506799615       -0.86402639031459
H           -1.94446742777687        0.99003047976306        0.89983806510584
H           -0.59420640884624       -1.09802944344355        0.87974580769270
H           -0.59876435429588       -1.08899366612583       -0.88398233827262
H            0.59834594363945        1.09067167516333       -0.88173930500490
H            0.59448131115501        1.09565601415305        0.88201438220757
H            1.94528995214538       -0.99156114689475        0.89738185627526
H            1.93793615802428       -1.01468131434618       -0.86651730514241
H            3.12940326623162        1.16842158916178       -0.90278205124544
H            3.13292694446034        1.19826065602720        0.86071494197566
H            4.50436376490494       -0.88678117585328        0.89452922585194
H            5.30941752975990        0.39224941832948       -0.01488982307095
H            4.49816878256385       -0.92065426695607       -0.86885984876397
26
 energy: -26.322628077090 gnorm: 0.001188053855 xtb: 6.6.1 (8d0f1dd)
C           -4.44235198293158        0.26936823073947       -0.00022487440100
C           -3.15038870964691       -0.53925189475465       -0.00908540809063
C           -1.91480115191701        0.35806512985520        0.00830019774710
C           -0.61810508093209       -0.44855640407776        0.00128075263803
C            0.61807749947480        0.44823517978504        0.00201608394648
C            1.91486221426479       -0.35825502322487        0.00689369701759
C            3.15026998714706        0.53932755079207       -0.01000175722064
C            4.44243915199278       -0.26893617397929        0.00089016730614
H           -4.49137279334848        0.92023846152982       -0.87047783173177
H           -4.49950287448446        0.88822688815030        0.89257836586110
H           -5.30651599259216       -0.39081380846771       -0.01620486829653
H           -3.12981906356166       -1.19752112036674        0.86225454053328
H           -3.12468491216394       -1.16965203168553       -0.90066362425563
H           -1.93575158877927        1.01529578601045       -0.86411355190978
H           -1.94185329533073        0.99026364154530        0.89881298129269
H           -0.59316931166620       -1.09798050614261        0.87943878387351
H           -0.59753751408760       -1.08930187852567       -0.88335484231182
H            0.59715211730255        1.09090626883209       -0.88121589672084
H            0.59341880488203        1.09574820359113        0.88159208773335
H            1.94262281238325       -0.99172555104766        0.89648218751720
H            1.93532097495832       -1.01422805609491       -0.86647725445485
H            3.12530939253080        1.16901889366938       -0.90210044836442
H            3.12864483648890        1.19828662072674        0.86079712544825
H            4.49871083312055       -0.88710221246630        0.89422857322102
H            5.30643285260930        0.39148199231538       -0.01455359737311
H            4.49266579428698       -0.92044218670865       -0.86881558900472
26
 energy: -26.322618460170 gnorm: 0.003809700866 xtb: 6.6.1 (8d0f1dd)
C           -4.43946399414532        0.26952031182161       -0.00011108524264
C           -3.14707219957444       -0.54040483463932       -0.00902243157650
C           -1.91298826680561        0.35832974501668        0.00800002385665
C           -0.61730351876944       -0.44921118039241        0.00130879875220
C            0.61728212934746        0.44892355884265        0.00201236279277
C            1.91304210355558       -0.35850339719779        0.00668266283218
C            3.14696285262009        0.54047016503019       -0.00983459269679
C            4.43954863556013       -0.26911961981677        0.00094204796870
H           -4.48591725950533        0.92001064600523       -0.87034591002582
H           -4.49368721297228        0.88850807349650        0.89235537190562
H           -5.30351798378785       -0.39004222306860       -0.01571309094756
H           -3.12542597479199       -1.19767629863105        0.86215897959156
H           -3.12059633680746       -1.17017734636401       -0.90015226102382
H           -1.93310510579085        1.01479006412958       -0.86421515394511
H           -1.93921841527377        0.99049973605826        0.89777292976078
H           -0.59211774090119       -1.09793764380775        0.87913582885347
H           -0.59629098421643       -1.08962617484772       -0.88272292806512
H            0.59593940820472        1.09115503706756       -0.88069079440291
H            0.59234134486862        1.09584978456364        0.88117109685517
H            1.93993330660966       -0.99189117636871        0.89557080698978
H            1.93268573990673       -1.01375917467085       -0.86644829846027
H            3.12118570019793        1.16964135211002       -0.90140916244907
H            3.12432866647084        1.19832252134818        0.86088966771214
H            4.49299259612840       -0.88743334272034        0.89392519460897
H            5.30343397668111        0.39068313123881       -0.01420816080619
H            4.48710153319071       -0.92022571420357       -0.86877590283821
26
 energy: -26.322629186992 gnorm: 0.001529448832 xtb: 6.6.1 (8d0f1dd)
C           -4.44060228268396        0.26935318018955       -0.00011738491745
C           -3.14876493832230       -0.53993986329320       -0.00901468864745
C           -1.91388400440293        0.35783252981085        0.00800871454958
C           -0.61761521565344       -0.44887281333803        0.00130040939836
C            0.61759088629444        0.44858068516242        0.00200385320355
C            1.91393913716510       -0.35800647010987        0.00669015432917
C            3.14865343177459        0.54000909278000       -0.00982768934591
C            4.44068461228519       -0.26894782565411        0.00093806400406
H           -4.48825138062635        0.92010931944078       -0.87046596812334
H           -4.49602917010111        0.88860132664578        0.89246095675750
H           -5.30545317273496       -0.38967078728313       -0.01571846727810
H           -3.12733294932989       -1.19813117986583        0.86224408791889
H           -3.12247750335550       -1.17065288484052       -0.90023948712680
H           -1.93432468997398        1.01501479149287       -0.86435883465850
H           -1.94042643134887        0.99071368571829        0.89796146934534
H           -0.59245649061313       -1.09835073077357        0.87929821154598
H           -0.59663400976597       -1.09004060340162       -0.88290678264273
H            0.59627931320831        1.09157137690591       -0.88087115081012
H            0.59268653962275        1.09625091430793        0.88134093234348
H            1.94113785897392       -0.99210816736757        0.89575491472675
H            1.93391856670647       -1.01397909051083       -0.86659517791765
H            3.12306603736627        1.17010775880886       -0.90150479329713
H            3.12623324128030        1.19879361837919        0.86096308101263
H            4.49532868176642       -0.88752961553039        0.89402796922044
H            5.30537192142939        0.39030584957617       -0.01420555771011
H            4.48943501103922       -0.92031809724993       -0.86889083588045
26
 energy: -26.322630910225 gnorm: 0.000610444339 xtb: 6.6.1 (8d0f1dd)
C           -4.44084156239096        0.26931489423907       -0.00003070143570
C           -3.14995594482958       -0.53985754064379       -0.00892700920641
C           -1.91447142850848        0.35703438590595        0.00775714339878
C           -0.61770519966916       -0.44871650919230        0.00130033200611
C            0.61768018524917        0.44844207030000        0.00197729903474
C            1.91452393753410       -0.35719585596469        0.00651347158076
C            3.14984982943454        0.53992906936462       -0.00965340063774
C            4.44091844928215       -0.26892702478300        0.00097685736339
H           -4.48935162609478        0.92006879706906       -0.87065207800155
H           -4.49683882631015        0.88899965879178        0.89251815065010
H           -5.30667500501814       -0.38884379040871       -0.01531188562038
H           -3.12870453947465       -1.19859759337423        0.86261024785779
H           -3.12404728368201       -1.17149077078639       -0.90018667443404
H           -1.93528007546074        1.01446600288159       -0.86506140959404
H           -1.94134704373510        0.99074073727035        0.89775052043522
H           -0.59250662109736       -1.09860937951196        0.87965857572764
H           -0.59652656176725       -1.09060372831971       -0.88304304781674
H            0.59619457650879        1.09207497266765       -0.88109228883216
H            0.59272612450032        1.09660182158347        0.88162136854599
H            1.94200387632109       -0.99208519109008        0.89564591277719
H            1.93491412285662       -1.01345370849189       -0.86719410339854
H            3.12460421400672        1.17100822481611       -0.90132091643765
H            3.12766411963697        1.19920533384156        0.86145950646282
H            4.49620266052336       -0.88797975381400        0.89400839646553
H            5.30660058963360        0.38943911854490       -0.01390206884049
H            4.49044203255093       -0.92026824089536       -0.86914619805064
