 Entering Gaussian System
 *********************************************
 Gaussian 98:
 frequency output generated by the xtb code
 *********************************************
                         Standard orientation:
 --------------------------------------------------------------------
  Center     Atomic     Atomic              Coordinates (Angstroms)
  Number     Number      Type              X           Y           Z
 --------------------------------------------------------------------
    1          6             0        5.273496   -0.844846   -0.138742
    2          6             0        3.819142   -0.922093    0.309613
    3          6             0        3.002690    0.267902   -0.188760
    4          6             0        1.546696    0.187891    0.263479
    5          6             0        0.720883    1.363537   -0.253723
    6          6             0       -0.720090    1.361977    0.258571
    7          6             0       -1.549314    0.195423   -0.273439
    8          6             0       -3.000911    0.265279    0.194352
    9          6             0       -3.822931   -0.912768   -0.322846
   10          6             0       -5.269955   -0.850897    0.150928
   11          1             0        5.336998   -0.830844   -1.224681
   12          1             0        5.742138    0.059894    0.242346
   13          1             0        5.833489   -1.702284    0.227176
   14          1             0        3.372935   -1.846056   -0.065574
   15          1             0        3.776947   -0.955046    1.400761
   16          1             0        3.448778    1.193614    0.182684
   17          1             0        3.040029    0.299314   -1.280357
   18          1             0        1.119402   -0.749702   -0.095750
   19          1             0        1.508652    0.173895    1.355432
   20          1             0        0.715074    1.347981   -1.346185
   21          1             0        1.202183    2.293566    0.059254
   22          1             0       -1.199236    2.297327   -0.041574
   23          1             0       -0.713776    1.331758    1.350749
   24          1             0       -1.521353    0.202119   -1.365753
   25          1             0       -1.117761   -0.748257    0.064057
   26          1             0       -3.450266    1.199415   -0.151150
   27          1             0       -3.027406    0.271513    1.286713
   28          1             0       -3.798214   -0.916379   -1.415003
   29          1             0       -3.369065   -1.845445    0.020257
   30          1             0       -5.746361    0.062857   -0.197632
   31          1             0       -5.834372   -1.699305   -0.228963
   32          1             0       -5.315666   -0.866586    1.237741
 --------------------------------------------------------------------
     1 basis functions        1 primitive gaussians
     1 alpha electrons        1 beta electrons
 
 Harmonic frequencies (cm**-1), IR intensities (KM/Mole),
 Raman scattering activities (A**4/amu), Raman depolarization ratios,
 reduced masses (AMU), force constants (mDyne/A) and normal coordinates:
                      1                      2                      3
                        a                      a                      a 
 Frequencies --    37.1007                35.8219                43.2037
 Red. masses --    99.0000                99.0000                99.0000
 Frc consts  --    99.0000                99.0000                99.0000
 IR Inten    --    99.0000                99.0000                99.0000
 Raman Activ --     0.0000                 0.0000                 0.0000
 Depolar     --     0.0000                 0.0000                 0.0000
 Atom AN      X      Y      Z        X      Y      Z        X      Y      Z
   1   6     0.11   0.22   0.14    -0.06  -0.10  -0.36     0.21   0.29   0.02
   2   6     0.01  -0.08  -0.23     0.07   0.12   0.10     0.25   0.16   0.12
   3   6     0.04   0.06   0.05    -0.03  -0.01  -0.06     0.04  -0.08  -0.12
   4   6    -0.03  -0.16  -0.20     0.06   0.13   0.26     0.08  -0.15  -0.00
   5   6    -0.01  -0.06  -0.02    -0.02  -0.00   0.10    -0.02  -0.24  -0.05
   6   6     0.01  -0.06   0.02    -0.02  -0.01   0.10     0.02  -0.24   0.05
   7   6     0.04  -0.17   0.21     0.06  -0.13   0.24    -0.08  -0.15  -0.01
   8   6    -0.04   0.06  -0.05    -0.03   0.01  -0.05    -0.04  -0.09   0.12
   9   6    -0.01  -0.09   0.23     0.06  -0.11   0.08    -0.25   0.17  -0.12
  10   6    -0.12   0.23  -0.16    -0.08   0.11  -0.35    -0.21   0.28  -0.01
  11   1     0.11   0.20   0.05    -0.11  -0.14  -0.11     0.04   0.01   0.00
  12   1    -0.01   0.03   0.18     0.02   0.01  -0.24     0.02   0.13  -0.07
  13   1     0.03   0.03  -0.02     0.00   0.00  -0.07     0.11   0.14   0.06
  14   1     0.05   0.01  -0.20    -0.02   0.00   0.16     0.11  -0.00   0.11
  15   1    -0.07  -0.15  -0.07     0.11   0.14   0.04     0.09   0.12   0.04
  16   1    -0.02  -0.02   0.13     0.02   0.02  -0.12    -0.02   0.02  -0.11
  17   1     0.06   0.13   0.02    -0.07  -0.09  -0.02    -0.01  -0.10  -0.04
  18   1     0.02  -0.02  -0.15    -0.01   0.01   0.17     0.03  -0.06   0.04
  19   1    -0.06  -0.13  -0.06     0.08   0.12   0.08     0.05  -0.01  -0.00
  20   1    -0.01   0.02  -0.01    -0.01  -0.05   0.03    -0.03  -0.10  -0.01
  21   1     0.01  -0.03   0.03    -0.02   0.02  -0.01    -0.01  -0.06  -0.05
  22   1    -0.01  -0.03  -0.03    -0.02  -0.02  -0.01     0.01  -0.06   0.05
  23   1     0.01   0.03   0.01    -0.01   0.04   0.03     0.03  -0.10   0.01
  24   1     0.06  -0.14   0.06     0.07  -0.11   0.07    -0.05  -0.01  -0.00
  25   1    -0.02  -0.03   0.16    -0.01  -0.02   0.16    -0.03  -0.06  -0.04
  26   1     0.02  -0.01  -0.13     0.01  -0.02  -0.11     0.02   0.02   0.11
  27   1    -0.06   0.13  -0.02    -0.07   0.08  -0.02     0.01  -0.11   0.04
  28   1     0.08  -0.16   0.07     0.10  -0.13   0.02    -0.10   0.13  -0.04
  29   1    -0.05   0.00   0.21    -0.02  -0.01   0.14    -0.11   0.00  -0.12
  30   1     0.01   0.03  -0.20     0.02   0.00  -0.22    -0.02   0.13   0.08
  31   1    -0.03   0.03   0.02    -0.00   0.00  -0.07    -0.11   0.14  -0.06
  32   1    -0.11   0.21  -0.05    -0.11   0.13  -0.10    -0.04  -0.00  -0.00
                      4                      5                      6
                        a                      a                      a 
 Frequencies --    96.9448               119.6828                93.2438
 Red. masses --    99.0000                99.0000                99.0000
 Frc consts  --    99.0000                99.0000                99.0000
 IR Inten    --    99.0000                99.0000                99.0000
 Raman Activ --     0.0000                 0.0000                 0.0000
 Depolar     --     0.0000                 0.0000                 0.0000
 Atom AN      X      Y      Z        X      Y      Z        X      Y      Z
   1   6    -0.06  -0.12  -0.04     0.05   0.08   0.12    -0.04  -0.07   0.27
   2   6    -0.08  -0.04  -0.11    -0.03  -0.13  -0.19    -0.13   0.02   0.01
   3   6     0.09   0.22   0.22    -0.03  -0.10  -0.13    -0.07  -0.09  -0.37
   4   6     0.07   0.23   0.15     0.09   0.16   0.30    -0.05   0.04  -0.29
   5   6    -0.02  -0.00  -0.22     0.00  -0.02   0.01    -0.04   0.12  -0.11
   6   6    -0.02   0.02  -0.22    -0.01  -0.03  -0.01     0.04   0.11   0.13
   7   6     0.07  -0.23   0.16    -0.09   0.17  -0.31     0.05   0.04   0.28
   8   6     0.10  -0.23   0.24     0.04  -0.11   0.14     0.07  -0.09   0.35
   9   6    -0.07   0.04  -0.11     0.04  -0.14   0.20     0.13   0.02   0.01
  10   6    -0.05   0.11  -0.06    -0.06   0.09  -0.12     0.04  -0.07  -0.27
  11   1    -0.01   0.09  -0.01     0.08   0.13   0.04     0.05  -0.10   0.08
  12   1     0.03  -0.10   0.10    -0.02  -0.01   0.15    -0.04   0.01   0.04
  13   1    -0.06  -0.10  -0.11     0.00  -0.01  -0.02    -0.03   0.01   0.17
  14   1    -0.06   0.04  -0.12     0.03  -0.03  -0.13    -0.02  -0.02   0.04
  15   1    -0.04  -0.11  -0.04    -0.07  -0.09  -0.06    -0.09   0.08   0.00
  16   1     0.05   0.02   0.14     0.06  -0.03  -0.12    -0.01  -0.00  -0.18
  17   1     0.03   0.15   0.07    -0.10  -0.08  -0.04    -0.02  -0.12  -0.11
  18   1     0.05   0.03   0.11    -0.01   0.01   0.24    -0.04   0.02  -0.09
  19   1    -0.00   0.15   0.04     0.11   0.19   0.09     0.01  -0.01  -0.08
  20   1    -0.01  -0.10  -0.06     0.00  -0.08   0.00    -0.06   0.05  -0.03
  21   1    -0.03   0.04  -0.15    -0.02   0.02  -0.06     0.01   0.02  -0.04
  22   1    -0.03  -0.04  -0.15     0.02   0.02   0.06    -0.01   0.02   0.05
  23   1    -0.00   0.11  -0.06    -0.00  -0.09  -0.01     0.06   0.05   0.04
  24   1    -0.00  -0.15   0.05    -0.12   0.19  -0.09    -0.01   0.00   0.08
  25   1     0.05  -0.03   0.11     0.01   0.01  -0.25     0.04   0.02   0.08
  26   1     0.06  -0.02   0.15    -0.05  -0.03   0.12     0.01  -0.00   0.17
  27   1     0.04  -0.16   0.07     0.10  -0.08   0.04     0.02  -0.11   0.10
  28   1    -0.03   0.11  -0.03     0.07  -0.10   0.06     0.09   0.07   0.00
  29   1    -0.06  -0.04  -0.12    -0.03  -0.03   0.13     0.02  -0.02  -0.03
  30   1     0.03   0.10   0.09     0.02  -0.00  -0.16     0.03   0.00  -0.05
  31   1    -0.06   0.11  -0.11    -0.01  -0.00   0.02     0.03   0.00  -0.16
  32   1    -0.01  -0.09  -0.02    -0.08   0.14  -0.04    -0.05  -0.09  -0.08
                      7                      8                      9
                        a                      a                      a 
 Frequencies --   116.6590               232.4975               231.6705
 Red. masses --    99.0000                99.0000                99.0000
 Frc consts  --    99.0000                99.0000                99.0000
 IR Inten    --    99.0000                99.0000                99.0000
 Raman Activ --     0.0000                 0.0000                 0.0000
 Depolar     --     0.0000                 0.0000                 0.0000
 Atom AN      X      Y      Z        X      Y      Z        X      Y      Z
   1   6     0.06   0.18   0.11    -0.00  -0.02  -0.02    -0.10   0.04  -0.04
   2   6    -0.01  -0.15  -0.20     0.05   0.09   0.15    -0.03   0.10   0.18
   3   6    -0.09  -0.20  -0.19    -0.02  -0.05  -0.08    -0.08  -0.04  -0.05
   4   6     0.03   0.05   0.26    -0.01  -0.03  -0.05    -0.07  -0.04  -0.06
   5   6     0.01  -0.08   0.02     0.00   0.01   0.01    -0.04  -0.05  -0.09
   6   6     0.01   0.08   0.02    -0.00  -0.00   0.01     0.04  -0.06   0.09
   7   6     0.03  -0.04   0.25    -0.02   0.04  -0.06     0.07  -0.04   0.05
   8   6    -0.10   0.21  -0.18    -0.03   0.06  -0.08     0.08  -0.04   0.04
   9   6    -0.01   0.15  -0.18     0.05  -0.11   0.17     0.03   0.09  -0.16
  10   6     0.06  -0.19   0.09    -0.01   0.01  -0.03     0.10   0.04   0.04
  11   1     0.08   0.14   0.04    -0.06   0.32  -0.01    -0.11   0.37  -0.01
  12   1    -0.04   0.04   0.13     0.13  -0.18   0.25     0.10  -0.17   0.26
  13   1     0.04   0.05  -0.01    -0.08  -0.19  -0.31    -0.10  -0.18  -0.34
  14   1     0.06  -0.05  -0.12     0.00   0.00   0.11    -0.02   0.01   0.12
  15   1    -0.06  -0.09  -0.06     0.04   0.09   0.05     0.03   0.09   0.06
  16   1     0.03  -0.05  -0.15    -0.02   0.02  -0.08    -0.04   0.02  -0.07
  17   1    -0.12  -0.12  -0.06    -0.01  -0.08  -0.02    -0.02  -0.08  -0.02
  18   1    -0.04  -0.02   0.21    -0.01  -0.00  -0.02    -0.02  -0.02  -0.01
  19   1     0.10   0.14   0.08     0.00  -0.02  -0.01    -0.02   0.00  -0.02
  20   1    -0.01  -0.10   0.01     0.00   0.02   0.00    -0.05  -0.04  -0.03
  21   1     0.01  -0.00  -0.07     0.00  -0.01   0.02     0.01  -0.01  -0.06
  22   1     0.01   0.00  -0.06     0.00   0.01   0.02    -0.01  -0.01   0.07
  23   1    -0.01   0.10   0.01    -0.00  -0.02   0.00     0.05  -0.04   0.03
  24   1     0.09  -0.13   0.07     0.00   0.02  -0.02     0.02   0.00   0.02
  25   1    -0.04   0.01   0.20    -0.01   0.01  -0.02     0.02  -0.02   0.01
  26   1     0.02   0.05  -0.14    -0.02  -0.02  -0.09     0.04   0.01   0.06
  27   1    -0.12   0.12  -0.05    -0.02   0.09  -0.02     0.02  -0.07   0.01
  28   1    -0.06   0.08  -0.05     0.05  -0.10   0.05    -0.02   0.08  -0.05
  29   1     0.06   0.05  -0.11     0.00  -0.01   0.12     0.02   0.01  -0.11
  30   1    -0.04  -0.05   0.12     0.15   0.19   0.28    -0.09  -0.14  -0.23
  31   1     0.04  -0.05  -0.01    -0.10   0.22  -0.34     0.10  -0.16   0.30
  32   1     0.08  -0.14   0.03    -0.07  -0.37  -0.02     0.10   0.33   0.02
                     10                     11                     12
                        a                      a                      a 
 Frequencies --   142.2105               169.0533               243.4266
 Red. masses --    99.0000                99.0000                99.0000
 Frc consts  --    99.0000                99.0000                99.0000
 IR Inten    --    99.0000                99.0000                99.0000
 Raman Activ --     0.0000                 0.0000                 0.0000
 Depolar     --     0.0000                 0.0000                 0.0000
 Atom AN      X      Y      Z        X      Y      Z        X      Y      Z
   1   6    -0.01  -0.19   0.19     0.16  -0.26   0.07    -0.23   0.12  -0.01
   2   6    -0.11   0.09  -0.08     0.11   0.08  -0.03    -0.20  -0.01  -0.00
   3   6     0.06   0.14  -0.26     0.25   0.21   0.00    -0.11   0.07   0.11
   4   6     0.12   0.25  -0.05     0.21   0.12  -0.08    -0.09   0.01   0.01
   5   6    -0.04   0.22   0.17    -0.05  -0.11  -0.19    -0.13  -0.19  -0.29
   6   6    -0.04  -0.22   0.16     0.05  -0.11   0.18     0.13  -0.19   0.29
   7   6     0.12  -0.25  -0.06    -0.21   0.12   0.08     0.09   0.01  -0.01
   8   6     0.06  -0.13  -0.26    -0.25   0.21   0.01     0.11   0.07  -0.11
   9   6    -0.11  -0.08  -0.09    -0.11   0.08   0.04     0.20  -0.01  -0.01
  10   6    -0.01   0.19   0.20    -0.16  -0.26  -0.07     0.23   0.12   0.02
  11   1     0.06  -0.08   0.06     0.07  -0.05   0.02    -0.07  -0.06  -0.01
  12   1     0.02  -0.07   0.07     0.12  -0.13   0.06    -0.12   0.10  -0.09
  13   1    -0.07  -0.08   0.11    -0.04  -0.14   0.01    -0.01   0.11   0.07
  14   1    -0.05   0.03  -0.02    -0.01   0.05  -0.02    -0.06   0.01  -0.03
  15   1    -0.09   0.05  -0.03     0.01   0.01  -0.01    -0.06  -0.04  -0.00
  16   1     0.05   0.04  -0.12     0.07   0.05   0.04    -0.03   0.00   0.08
  17   1    -0.01  -0.01  -0.08     0.10   0.09   0.00    -0.01   0.07   0.03
  18   1     0.01   0.08   0.00     0.10   0.00   0.01     0.00  -0.03   0.06
  19   1     0.09   0.07  -0.01     0.06   0.07  -0.02    -0.05   0.07   0.00
  20   1    -0.01   0.13   0.05    -0.10  -0.11  -0.05    -0.15  -0.19  -0.08
  21   1    -0.07   0.07   0.11    -0.02   0.01  -0.16     0.00  -0.02  -0.25
  22   1    -0.07  -0.07   0.11     0.02   0.00   0.16    -0.00  -0.02   0.25
  23   1    -0.01  -0.13   0.05     0.10  -0.11   0.05     0.15  -0.19   0.08
  24   1     0.09  -0.07  -0.01    -0.06   0.07   0.02     0.05   0.07  -0.00
  25   1     0.01  -0.08   0.00    -0.10   0.00  -0.02    -0.00  -0.03  -0.06
  26   1     0.05  -0.04  -0.12    -0.07   0.05  -0.04     0.03   0.00  -0.08
  27   1    -0.01   0.01  -0.08    -0.10   0.09   0.00     0.01   0.06  -0.03
  28   1    -0.09  -0.05  -0.03    -0.02   0.01   0.01     0.06  -0.04  -0.00
  29   1    -0.05  -0.03  -0.03     0.01   0.05   0.02     0.06   0.01   0.03
  30   1     0.02   0.07   0.07    -0.12  -0.13  -0.06     0.12   0.10   0.09
  31   1    -0.07   0.08   0.11     0.04  -0.13  -0.01     0.01   0.11  -0.06
  32   1     0.06   0.08   0.06    -0.07  -0.05  -0.02     0.07  -0.05   0.00
                     13                     14                     15
                        a                      a                      a 
 Frequencies --   328.8903               335.5284               402.8131
 Red. masses --    99.0000                99.0000                99.0000
 Frc consts  --    99.0000                99.0000                99.0000
 IR Inten    --    99.0000                99.0000                99.0000
 Raman Activ --     0.0000                 0.0000                 0.0000
 Depolar     --     0.0000                 0.0000                 0.0000
 Atom AN      X      Y      Z        X      Y      Z        X      Y      Z
   1   6    -0.20   0.19  -0.06     0.09   0.07  -0.07     0.28  -0.08  -0.03
   2   6    -0.10  -0.22   0.15     0.14  -0.28   0.13     0.23  -0.12   0.01
   3   6     0.09  -0.14   0.06     0.13  -0.24   0.12    -0.03  -0.15   0.10
   4   6     0.07   0.21  -0.09     0.00   0.20  -0.14    -0.18   0.17  -0.05
   5   6     0.15   0.26  -0.07    -0.03   0.24  -0.18    -0.32   0.17  -0.04
   6   6     0.15  -0.26  -0.07     0.03   0.23   0.18    -0.32  -0.17  -0.04
   7   6     0.07  -0.21  -0.09     0.00   0.19   0.14    -0.18  -0.17  -0.05
   8   6     0.09   0.15   0.06    -0.13  -0.23  -0.12    -0.03   0.15   0.11
   9   6    -0.09   0.21   0.16    -0.15  -0.28  -0.14     0.23   0.12   0.01
  10   6    -0.20  -0.19  -0.06    -0.09   0.07   0.07     0.28   0.08  -0.03
  11   1    -0.13   0.09  -0.02    -0.03   0.05  -0.02     0.09  -0.03  -0.01
  12   1    -0.13   0.09  -0.02    -0.03   0.05  -0.02     0.09  -0.03  -0.01
  13   1     0.06   0.10  -0.07     0.11   0.06  -0.07     0.07  -0.03  -0.00
  14   1    -0.01  -0.07   0.04     0.07  -0.09   0.03     0.09  -0.05   0.00
  15   1    -0.01  -0.07   0.04     0.07  -0.09   0.04     0.09  -0.05   0.00
  16   1     0.08  -0.06   0.01     0.08  -0.09   0.04     0.00  -0.05   0.02
  17   1     0.06  -0.07   0.02     0.09  -0.08   0.03     0.00  -0.04   0.03
  18   1    -0.03   0.08  -0.03    -0.03   0.07  -0.03    -0.08   0.06  -0.01
  19   1    -0.00   0.07  -0.03    -0.04   0.08  -0.04    -0.08   0.07  -0.01
  20   1     0.08   0.14  -0.02    -0.08   0.03  -0.05    -0.09   0.08  -0.01
  21   1    -0.02   0.08   0.07     0.01   0.08  -0.11    -0.15   0.07   0.02
  22   1    -0.02  -0.08   0.07    -0.01   0.07   0.11    -0.15  -0.07   0.02
  23   1     0.08  -0.15  -0.02     0.08   0.03   0.05    -0.09  -0.08  -0.01
  24   1    -0.00  -0.06  -0.03     0.04   0.07   0.04    -0.08  -0.07  -0.01
  25   1    -0.03  -0.08  -0.03     0.03   0.07   0.03    -0.08  -0.06  -0.01
  26   1     0.08   0.06   0.01    -0.08  -0.09  -0.04     0.00   0.04   0.02
  27   1     0.06   0.07   0.02    -0.08  -0.08  -0.03     0.00   0.04   0.03
  28   1    -0.01   0.06   0.05    -0.07  -0.09  -0.04     0.09   0.05   0.00
  29   1    -0.01   0.07   0.04    -0.07  -0.09  -0.04     0.09   0.05   0.00
  30   1    -0.13  -0.09  -0.02     0.03   0.05   0.02     0.09   0.03  -0.01
  31   1     0.06  -0.10  -0.08    -0.11   0.05   0.07     0.07   0.03  -0.00
  32   1    -0.13  -0.09  -0.02     0.03   0.05   0.02     0.09   0.03  -0.01
                     16                     17                     18
                        a                      a                      a 
 Frequencies --   442.0438               523.2249               772.2620
 Red. masses --    99.0000                99.0000                99.0000
 Frc consts  --    99.0000                99.0000                99.0000
 IR Inten    --    99.0000                99.0000                99.0000
 Raman Activ --     0.0000                 0.0000                 0.0000
 Depolar     --     0.0000                 0.0000                 0.0000
 Atom AN      X      Y      Z        X      Y      Z        X      Y      Z
   1   6    -0.27   0.12   0.00    -0.08   0.04  -0.00     0.00  -0.00  -0.01
   2   6    -0.15  -0.11   0.11    -0.02  -0.14   0.09    -0.02  -0.05  -0.08
   3   6     0.28   0.04  -0.10     0.25   0.01  -0.08    -0.04  -0.06  -0.09
   4   6     0.32   0.02  -0.08     0.19  -0.00  -0.11    -0.03  -0.03  -0.09
   5   6     0.07  -0.11   0.11    -0.36  -0.19   0.14    -0.01  -0.02  -0.02
   6   6    -0.06  -0.11  -0.12    -0.36   0.19   0.15     0.01  -0.02   0.02
   7   6    -0.32   0.01   0.08     0.19   0.00  -0.11     0.03  -0.03   0.08
   8   6    -0.28   0.04   0.10     0.25  -0.01  -0.09     0.04  -0.06   0.09
   9   6     0.15  -0.11  -0.11    -0.01   0.14   0.10     0.02  -0.05   0.07
  10   6     0.26   0.12  -0.00    -0.08  -0.04  -0.00    -0.00  -0.00   0.01
  11   1    -0.13   0.07  -0.00    -0.07   0.04  -0.00     0.09   0.04   0.00
  12   1    -0.13   0.07  -0.01    -0.07   0.04  -0.01    -0.07   0.00   0.07
  13   1     0.02   0.07  -0.05     0.05   0.04  -0.04     0.01   0.01   0.02
  14   1    -0.06  -0.02   0.02    -0.01  -0.03   0.02    -0.02  -0.10   0.22
  15   1    -0.06  -0.02   0.03    -0.01  -0.03   0.03     0.08   0.23  -0.01
  16   1     0.12  -0.01  -0.02     0.11  -0.02  -0.01    -0.06  -0.11   0.28
  17   1     0.12  -0.01  -0.03     0.12  -0.01  -0.02     0.13   0.27  -0.01
  18   1     0.11  -0.01  -0.02     0.12  -0.03  -0.03    -0.07  -0.07   0.22
  19   1     0.13  -0.02  -0.02     0.10  -0.04  -0.03     0.12   0.21  -0.01
  20   1     0.06   0.03   0.03    -0.22  -0.14   0.04     0.01   0.12  -0.01
  21   1    -0.04  -0.02   0.10    -0.07  -0.03  -0.10     0.01  -0.05   0.10
  22   1     0.04  -0.02  -0.10    -0.07   0.03  -0.10    -0.01  -0.04  -0.10
  23   1    -0.06   0.03  -0.03    -0.22   0.14   0.04    -0.01   0.12   0.01
  24   1    -0.13  -0.02   0.02     0.10   0.04  -0.03    -0.12   0.21   0.02
  25   1    -0.11  -0.01   0.02     0.12   0.03  -0.03     0.07  -0.06  -0.22
  26   1    -0.12  -0.01   0.03     0.10   0.02  -0.01     0.06  -0.10  -0.28
  27   1    -0.12  -0.01   0.03     0.12   0.01  -0.02    -0.13   0.27   0.02
  28   1     0.06  -0.02  -0.03    -0.01   0.03   0.03    -0.08   0.23   0.01
  29   1     0.06  -0.02  -0.02    -0.01   0.03   0.02     0.01  -0.10  -0.22
  30   1     0.13   0.07   0.01    -0.07  -0.04  -0.01     0.07   0.01  -0.07
  31   1    -0.02   0.07   0.05     0.05  -0.04  -0.04    -0.01   0.01  -0.02
  32   1     0.13   0.07   0.00    -0.07  -0.04  -0.00    -0.09   0.04  -0.00
                     19                     20                     21
                        a                      a                      a 
 Frequencies --   765.3245               785.4946               854.6203
 Red. masses --    99.0000                99.0000                99.0000
 Frc consts  --    99.0000                99.0000                99.0000
 IR Inten    --    99.0000                99.0000                99.0000
 Raman Activ --     0.0000                 0.0000                 0.0000
 Depolar     --     0.0000                 0.0000                 0.0000
 Atom AN      X      Y      Z        X      Y      Z        X      Y      Z
   1   6     0.01   0.00  -0.00     0.00  -0.01  -0.02     0.02   0.05   0.05
   2   6     0.01   0.03   0.03    -0.04  -0.06  -0.13     0.02   0.08   0.09
   3   6    -0.01   0.03   0.09    -0.06  -0.06  -0.05    -0.08  -0.10  -0.10
   4   6     0.01   0.10   0.08    -0.00   0.09   0.03    -0.03   0.04  -0.11
   5   6     0.07   0.07   0.06     0.09   0.08   0.09     0.12   0.08   0.13
   6   6     0.08  -0.07   0.06     0.09  -0.08   0.08     0.12  -0.09   0.13
   7   6     0.01  -0.10   0.07    -0.00  -0.09   0.03    -0.03  -0.03  -0.11
   8   6    -0.01  -0.03   0.09    -0.06   0.06  -0.05    -0.08   0.10  -0.09
   9   6     0.01  -0.03   0.03    -0.04   0.07  -0.13     0.02  -0.08   0.09
  10   6     0.01  -0.00  -0.00     0.00   0.01  -0.02     0.02  -0.05   0.05
  11   1    -0.03  -0.02  -0.00     0.16   0.05   0.01    -0.19  -0.06  -0.00
  12   1     0.04  -0.00  -0.04    -0.11   0.01   0.11     0.18  -0.02  -0.13
  13   1    -0.01  -0.01  -0.00     0.00   0.02   0.05    -0.04  -0.05  -0.06
  14   1     0.00   0.06  -0.13    -0.05  -0.12   0.27     0.14   0.02  -0.14
  15   1    -0.03  -0.14   0.00     0.12   0.27  -0.02    -0.16  -0.09   0.01
  16   1     0.06   0.07  -0.23     0.02  -0.10   0.16    -0.13  -0.05   0.17
  17   1    -0.14  -0.21   0.01    -0.00   0.19  -0.01     0.14   0.12  -0.01
  18   1     0.03   0.13  -0.29    -0.08   0.10  -0.11    -0.18   0.05   0.07
  19   1    -0.15  -0.26   0.01    -0.00  -0.11   0.00     0.14   0.06  -0.02
  20   1    -0.06  -0.20   0.02    -0.08  -0.18   0.02    -0.14  -0.14   0.04
  21   1    -0.00   0.10  -0.20     0.02   0.10  -0.20     0.07   0.07  -0.18
  22   1    -0.01  -0.10  -0.21     0.02  -0.10  -0.20     0.07  -0.07  -0.18
  23   1    -0.06   0.20   0.02    -0.08   0.18   0.03    -0.14   0.14   0.04
  24   1    -0.15   0.26   0.01    -0.00   0.12   0.01     0.14  -0.06  -0.02
  25   1     0.03  -0.12  -0.29    -0.08  -0.10  -0.12    -0.18  -0.05   0.07
  26   1     0.06  -0.07  -0.23     0.02   0.10   0.17    -0.13   0.05   0.17
  27   1    -0.14   0.22   0.02    -0.00  -0.19  -0.01     0.15  -0.12  -0.02
  28   1    -0.03   0.14   0.00     0.13  -0.27  -0.03    -0.16   0.09   0.02
  29   1     0.00  -0.06  -0.13    -0.04   0.11   0.27     0.14  -0.01  -0.14
  30   1     0.04   0.01  -0.04    -0.11  -0.01   0.11     0.18   0.03  -0.13
  31   1    -0.01   0.01  -0.00     0.00  -0.03   0.05    -0.04   0.05  -0.06
  32   1    -0.03   0.03  -0.00     0.16  -0.05   0.00    -0.19   0.06   0.00
                     22                     23                     24
                        a                      a                      a 
 Frequencies --   800.1265              1504.5869              1504.5777
 Red. masses --    99.0000                99.0000                99.0000
 Frc consts  --    99.0000                99.0000                99.0000
 IR Inten    --    99.0000                99.0000                99.0000
 Raman Activ --     0.0000                 0.0000                 0.0000
 Depolar     --     0.0000                 0.0000                 0.0000
 Atom AN      X      Y      Z        X      Y      Z        X      Y      Z
   1   6     0.02   0.02   0.03    -0.03  -0.07  -0.11    -0.04  -0.08  -0.14
   2   6     0.03   0.07   0.12    -0.00  -0.01  -0.03    -0.01  -0.03  -0.02
   3   6    -0.01   0.00   0.02    -0.00  -0.00   0.00     0.00   0.00   0.00
   4   6    -0.05  -0.03  -0.15     0.00   0.01  -0.00    -0.00  -0.01   0.01
   5   6    -0.05  -0.07  -0.08     0.00  -0.00   0.00    -0.00   0.00  -0.00
   6   6     0.05  -0.07   0.08    -0.00   0.00   0.00    -0.00  -0.00  -0.00
   7   6     0.06  -0.03   0.14     0.00  -0.00  -0.01    -0.01   0.01   0.01
   8   6     0.02   0.00  -0.02    -0.00   0.00   0.00     0.00  -0.00  -0.00
   9   6    -0.04   0.07  -0.12     0.01  -0.02   0.03    -0.01   0.02  -0.02
  10   6    -0.02   0.02  -0.02     0.04  -0.09   0.13    -0.03   0.07  -0.11
  11   1    -0.16  -0.06  -0.01    -0.20   0.22  -0.02    -0.25   0.27  -0.02
  12   1     0.13  -0.02  -0.11     0.22  -0.16   0.09     0.28  -0.20   0.12
  13   1    -0.01  -0.03  -0.05     0.10   0.23   0.37     0.13   0.28   0.46
  14   1     0.07   0.09  -0.23    -0.02  -0.01   0.02    -0.01   0.00  -0.01
  15   1    -0.13  -0.22   0.02     0.01  -0.01  -0.01     0.03   0.03  -0.01
  16   1    -0.09   0.05  -0.02    -0.01   0.01  -0.01    -0.02   0.00   0.00
  17   1     0.08  -0.07   0.01     0.01   0.00   0.00     0.01  -0.01  -0.00
  18   1    -0.02  -0.10   0.22    -0.00  -0.00   0.01     0.01   0.01  -0.04
  19   1     0.05   0.26  -0.03    -0.01  -0.01  -0.00     0.01   0.03   0.00
  20   1     0.01   0.22  -0.02     0.00   0.00  -0.00    -0.00  -0.00   0.00
  21   1    -0.00  -0.09   0.19    -0.00   0.00  -0.00     0.00  -0.00   0.00
  22   1     0.00  -0.09  -0.19    -0.00  -0.00  -0.00     0.00   0.00   0.01
  23   1    -0.01   0.22   0.03     0.00  -0.00  -0.00    -0.00   0.01   0.00
  24   1    -0.05   0.26   0.04    -0.00   0.01  -0.00     0.01  -0.03   0.00
  25   1     0.01  -0.10  -0.22    -0.01   0.00   0.02     0.01  -0.01  -0.04
  26   1     0.09   0.05   0.02     0.02   0.00  -0.01    -0.01  -0.00   0.01
  27   1    -0.08  -0.07  -0.01    -0.01  -0.02   0.00     0.00   0.02  -0.00
  28   1     0.13  -0.22  -0.03    -0.02   0.01   0.01     0.02  -0.03  -0.01
  29   1    -0.07   0.08   0.23     0.02  -0.00   0.00    -0.01  -0.00  -0.02
  30   1    -0.13  -0.02   0.11    -0.28  -0.20  -0.12     0.22   0.16   0.10
  31   1     0.02  -0.03   0.05    -0.13   0.29  -0.46     0.11  -0.23   0.36
  32   1     0.15  -0.06   0.00     0.25   0.27   0.02    -0.20  -0.21  -0.02
                     25                     26                     27
                        a                      a                      a 
 Frequencies --   879.4354              1507.9079              1507.8585
 Red. masses --    99.0000                99.0000                99.0000
 Frc consts  --    99.0000                99.0000                99.0000
 IR Inten    --    99.0000                99.0000                99.0000
 Raman Activ --     0.0000                 0.0000                 0.0000
 Depolar     --     0.0000                 0.0000                 0.0000
 Atom AN      X      Y      Z        X      Y      Z        X      Y      Z
   1   6     0.00  -0.05  -0.08     0.02  -0.13   0.07    -0.02   0.12  -0.07
   2   6    -0.02  -0.06  -0.06     0.00  -0.07   0.04    -0.00   0.07  -0.04
   3   6     0.01   0.10   0.16    -0.03  -0.02   0.02     0.03   0.02  -0.02
   4   6    -0.04   0.09  -0.06     0.01   0.00  -0.00    -0.00   0.00  -0.00
   5   6    -0.10  -0.15  -0.10    -0.00  -0.01   0.01     0.00   0.01  -0.00
   6   6     0.10  -0.15   0.09    -0.00   0.01   0.01    -0.00   0.01   0.00
   7   6     0.04   0.09   0.06     0.01  -0.00  -0.00     0.01   0.00   0.00
   8   6    -0.01   0.10  -0.15    -0.03   0.02   0.02    -0.03   0.02   0.02
   9   6     0.02  -0.06   0.06     0.00   0.06   0.04     0.00   0.07   0.05
  10   6    -0.00  -0.05   0.08     0.02   0.12   0.07     0.02   0.13   0.08
  11   1     0.22   0.06  -0.00     0.11   0.43   0.02    -0.10  -0.40  -0.02
  12   1    -0.17   0.02   0.12    -0.01   0.17  -0.41     0.01  -0.16   0.39
  13   1     0.03   0.05   0.07    -0.19  -0.09   0.10     0.17   0.09  -0.09
  14   1    -0.15   0.01   0.09    -0.01   0.04  -0.10     0.00  -0.04   0.10
  15   1     0.18   0.02  -0.01     0.02   0.10   0.01    -0.03  -0.10  -0.01
  16   1     0.08   0.08  -0.18     0.02   0.03  -0.10    -0.02  -0.03   0.09
  17   1    -0.12  -0.17   0.03     0.06   0.10   0.00    -0.05  -0.08  -0.00
  18   1     0.11  -0.04  -0.00    -0.01  -0.01   0.03     0.00   0.00  -0.01
  19   1    -0.16   0.10  -0.02    -0.02  -0.03  -0.00     0.00   0.00  -0.00
  20   1     0.00   0.20  -0.03     0.01   0.02  -0.00    -0.01  -0.02   0.00
  21   1    -0.07  -0.09   0.20     0.00   0.01  -0.02    -0.00  -0.01   0.02
  22   1     0.07  -0.09  -0.20     0.00  -0.01  -0.02     0.00  -0.01  -0.02
  23   1     0.00   0.20   0.03     0.01  -0.02  -0.00     0.01  -0.02  -0.00
  24   1     0.16   0.10   0.02    -0.02   0.03   0.00    -0.01   0.01   0.00
  25   1    -0.11  -0.04   0.00    -0.01   0.01   0.03    -0.00   0.00   0.01
  26   1    -0.07   0.07   0.18     0.02  -0.03  -0.10     0.02  -0.03  -0.10
  27   1     0.12  -0.17  -0.03     0.05  -0.09   0.00     0.05  -0.09   0.00
  28   1    -0.18   0.02   0.01     0.02  -0.09   0.01     0.03  -0.11   0.01
  29   1     0.15   0.02  -0.09    -0.01  -0.03  -0.09    -0.01  -0.04  -0.11
  30   1     0.17   0.02  -0.13    -0.02  -0.15  -0.39    -0.02  -0.17  -0.42
  31   1    -0.03   0.05  -0.07    -0.17   0.08   0.10    -0.19   0.09   0.11
  32   1    -0.21   0.06   0.01     0.10  -0.40   0.00     0.11  -0.43   0.00
                     28                     29                     30
                        a                      a                      a 
 Frequencies --   954.6222              1211.3910               961.0787
 Red. masses --    99.0000                99.0000                99.0000
 Frc consts  --    99.0000                99.0000                99.0000
 IR Inten    --    99.0000                99.0000                99.0000
 Raman Activ --     0.0000                 0.0000                 0.0000
 Depolar     --     0.0000                 0.0000                 0.0000
 Atom AN      X      Y      Z        X      Y      Z        X      Y      Z
   1   6     0.08  -0.12  -0.08     0.05   0.10   0.17    -0.00  -0.11  -0.03
   2   6    -0.02  -0.04   0.08    -0.07  -0.14  -0.25     0.03   0.00   0.04
   3   6    -0.06   0.14   0.05     0.04   0.11   0.21     0.08   0.11  -0.01
   4   6    -0.09   0.02  -0.18    -0.04  -0.06  -0.14    -0.01  -0.29   0.03
   5   6     0.12   0.00   0.12    -0.01   0.01   0.05     0.17   0.24  -0.07
   6   6     0.12  -0.01   0.12    -0.01  -0.01   0.05    -0.17   0.24   0.08
   7   6    -0.09  -0.01  -0.18    -0.04   0.06  -0.14     0.01  -0.29  -0.04
   8   6    -0.06  -0.14   0.05     0.04  -0.12   0.20    -0.08   0.11   0.01
   9   6    -0.02   0.04   0.08    -0.07   0.14  -0.25    -0.03   0.01  -0.04
  10   6     0.08   0.12  -0.08     0.05  -0.10   0.17     0.01  -0.11   0.03
  11   1     0.14   0.08  -0.01    -0.20  -0.05   0.03     0.07   0.07  -0.00
  12   1    -0.20   0.04   0.09     0.16   0.01  -0.11    -0.20   0.04   0.07
  13   1     0.17   0.07   0.00    -0.01  -0.04  -0.08     0.14   0.07  -0.01
  14   1    -0.20   0.10  -0.02    -0.09  -0.07   0.13    -0.17   0.10  -0.03
  15   1     0.12  -0.12   0.02     0.13   0.13  -0.05     0.07  -0.07   0.01
  16   1    -0.16   0.15  -0.09    -0.00   0.10  -0.11    -0.13   0.13  -0.07
  17   1     0.07  -0.12   0.01     0.00  -0.16   0.04     0.07  -0.07  -0.00
  18   1    -0.10  -0.02   0.11    -0.12  -0.00   0.07    -0.03  -0.11   0.13
  19   1     0.05   0.16  -0.04     0.16   0.03  -0.03     0.10   0.03   0.02
  20   1    -0.16  -0.03   0.03     0.13  -0.10   0.01    -0.01  -0.02  -0.02
  21   1     0.14  -0.01  -0.09    -0.07   0.05  -0.02     0.23   0.00  -0.12
  22   1     0.14   0.01  -0.09    -0.07  -0.05  -0.02    -0.22   0.00   0.12
  23   1    -0.16   0.03   0.03     0.13   0.10   0.01     0.01  -0.02   0.02
  24   1     0.05  -0.16  -0.04     0.16  -0.03  -0.03    -0.10   0.03  -0.01
  25   1    -0.10   0.01   0.11    -0.12   0.00   0.07     0.03  -0.10  -0.14
  26   1    -0.16  -0.14  -0.09    -0.00  -0.09  -0.12     0.13   0.12   0.07
  27   1     0.07   0.12   0.01     0.00   0.16   0.05    -0.07  -0.08   0.00
  28   1     0.12   0.12   0.02     0.13  -0.13  -0.06    -0.07  -0.07  -0.01
  29   1    -0.20  -0.10  -0.02    -0.09   0.07   0.14     0.17   0.10   0.03
  30   1    -0.20  -0.04   0.10     0.16  -0.00  -0.11     0.19   0.04  -0.08
  31   1     0.16  -0.07   0.00    -0.01   0.04  -0.07    -0.14   0.06   0.01
  32   1     0.15  -0.08  -0.02    -0.20   0.05   0.03    -0.07   0.07   0.00
                     31                     32                     33
                        a                      a                      a 
 Frequencies --  1003.3221              1177.2120               942.5683
 Red. masses --    99.0000                99.0000                99.0000
 Frc consts  --    99.0000                99.0000                99.0000
 IR Inten    --    99.0000                99.0000                99.0000
 Raman Activ --     0.0000                 0.0000                 0.0000
 Depolar     --     0.0000                 0.0000                 0.0000
 Atom AN      X      Y      Z        X      Y      Z        X      Y      Z
   1   6    -0.02   0.01   0.10     0.01  -0.03   0.10    -0.19   0.13  -0.08
   2   6     0.01  -0.01  -0.10    -0.01   0.05  -0.17     0.02   0.16  -0.09
   3   6     0.09   0.02  -0.00    -0.02  -0.02   0.21     0.05  -0.21   0.18
   4   6     0.04  -0.15   0.14    -0.03   0.04  -0.27     0.08   0.00  -0.11
   5   6     0.10   0.11  -0.23    -0.02   0.00   0.33    -0.01   0.01   0.04
   6   6    -0.10   0.11   0.24     0.02   0.01  -0.33    -0.01  -0.01   0.04
   7   6    -0.04  -0.15  -0.14     0.04   0.04   0.27     0.08  -0.00  -0.11
   8   6    -0.09   0.02   0.00     0.02  -0.02  -0.21     0.05   0.21   0.19
   9   6    -0.01  -0.02   0.10     0.01   0.04   0.17     0.02  -0.16  -0.10
  10   6     0.01   0.01  -0.10    -0.01  -0.03  -0.10    -0.20  -0.13  -0.08
  11   1    -0.18  -0.01   0.01    -0.12   0.01   0.01     0.21  -0.06  -0.00
  12   1     0.06   0.01  -0.07     0.01   0.02  -0.04     0.06  -0.06   0.07
  13   1     0.04  -0.01  -0.07     0.06   0.00  -0.05    -0.33  -0.07   0.18
  14   1     0.10  -0.08   0.05     0.00  -0.03   0.05     0.02   0.04  -0.03
  15   1    -0.13   0.16  -0.03     0.00   0.11  -0.04     0.16  -0.05  -0.02
  16   1     0.19  -0.07  -0.02     0.12  -0.02  -0.06     0.01  -0.03  -0.01
  17   1    -0.22   0.09  -0.01    -0.08  -0.10   0.04     0.08  -0.15   0.05
  18   1     0.17  -0.10  -0.00     0.08  -0.09   0.09     0.00  -0.02   0.05
  19   1    -0.20   0.01   0.03     0.03   0.16  -0.06     0.03   0.08  -0.03
  20   1    -0.00   0.17  -0.06    -0.11  -0.16   0.08    -0.11   0.02   0.01
  21   1     0.16  -0.07   0.04     0.20  -0.05  -0.10     0.03  -0.00  -0.03
  22   1    -0.16  -0.07  -0.04    -0.20  -0.05   0.10     0.03   0.00  -0.03
  23   1     0.00   0.17   0.06     0.11  -0.16  -0.09    -0.11  -0.02   0.01
  24   1     0.20   0.01  -0.03    -0.03   0.15   0.06     0.03  -0.08  -0.03
  25   1    -0.17  -0.10   0.00    -0.08  -0.09  -0.09     0.00   0.02   0.05
  26   1    -0.19  -0.07   0.02    -0.12  -0.02   0.06     0.01   0.03  -0.01
  27   1     0.22   0.09   0.01     0.08  -0.10  -0.05     0.08   0.15   0.05
  28   1     0.13   0.16   0.03    -0.00   0.11   0.04     0.16   0.05  -0.02
  29   1    -0.09  -0.08  -0.05    -0.00  -0.02  -0.05     0.02  -0.04  -0.03
  30   1    -0.06   0.01   0.07    -0.00   0.02   0.04     0.07   0.06   0.07
  31   1    -0.04  -0.01   0.07    -0.06  -0.00   0.05    -0.34   0.07   0.19
  32   1     0.18  -0.01  -0.02     0.12   0.01  -0.02     0.21   0.07  -0.01
                     34                     35                     36
                        a                      a                      a 
 Frequencies --  1025.5413              1499.1495              1497.0857
 Red. masses --    99.0000                99.0000                99.0000
 Frc consts  --    99.0000                99.0000                99.0000
 IR Inten    --    99.0000                99.0000                99.0000
 Raman Activ --     0.0000                 0.0000                 0.0000
 Depolar     --     0.0000                 0.0000                 0.0000
 Atom AN      X      Y      Z        X      Y      Z        X      Y      Z
   1   6    -0.09  -0.05  -0.02    -0.01  -0.03   0.02     0.01   0.03  -0.02
   2   6     0.09   0.07   0.03     0.07   0.10  -0.08    -0.07  -0.11   0.09
   3   6     0.11  -0.04  -0.08     0.04   0.08  -0.06    -0.03  -0.02   0.02
   4   6     0.01  -0.18   0.15     0.02   0.05  -0.04     0.04   0.07  -0.06
   5   6    -0.10   0.15  -0.09     0.02   0.04  -0.03     0.01  -0.01  -0.00
   6   6    -0.10  -0.14  -0.10    -0.02   0.04   0.03     0.01   0.00  -0.00
   7   6     0.01   0.18   0.15    -0.02   0.05   0.04     0.04  -0.07  -0.06
   8   6     0.11   0.04  -0.08    -0.04   0.08   0.06    -0.04   0.02   0.02
   9   6     0.09  -0.07   0.02    -0.07   0.09   0.08    -0.07   0.11   0.09
  10   6    -0.10   0.05  -0.02     0.01  -0.03  -0.02     0.01  -0.03  -0.02
  11   1     0.05   0.03   0.00     0.05   0.13   0.01    -0.05  -0.11  -0.01
  12   1    -0.12   0.01   0.06     0.01   0.05  -0.13    -0.02  -0.04   0.12
  13   1     0.01   0.02   0.03    -0.05  -0.02   0.02     0.03   0.01  -0.02
  14   1    -0.08   0.10  -0.07    -0.07  -0.10   0.33     0.07   0.11  -0.36
  15   1     0.07  -0.09   0.00    -0.16  -0.31  -0.02     0.17   0.34   0.02
  16   1    -0.17   0.06   0.03    -0.04  -0.06   0.22     0.03   0.01  -0.07
  17   1     0.19  -0.03  -0.01    -0.10  -0.20  -0.01     0.05   0.06   0.01
  18   1    -0.18   0.05   0.01    -0.03  -0.03   0.13    -0.04  -0.07   0.23
  19   1     0.20  -0.18   0.04    -0.06  -0.12  -0.01    -0.10  -0.22  -0.01
  20   1     0.22  -0.08  -0.02    -0.06  -0.11   0.00    -0.00   0.02  -0.00
  21   1    -0.23   0.14  -0.01    -0.02  -0.03   0.12    -0.01   0.01  -0.01
  22   1    -0.23  -0.14  -0.01     0.02  -0.03  -0.12    -0.01  -0.01  -0.00
  23   1     0.22   0.08  -0.02     0.06  -0.11  -0.00    -0.01  -0.01  -0.00
  24   1     0.20   0.18   0.05     0.06  -0.12   0.00    -0.11   0.22  -0.00
  25   1    -0.18  -0.05   0.01     0.03  -0.03  -0.13    -0.04   0.06   0.23
  26   1    -0.17  -0.06   0.03     0.04  -0.06  -0.22     0.03  -0.01  -0.08
  27   1     0.19   0.03  -0.02     0.10  -0.20   0.01     0.05  -0.06   0.00
  28   1     0.07   0.09   0.01     0.16  -0.31   0.01     0.17  -0.34   0.01
  29   1    -0.08  -0.10  -0.07     0.06  -0.09  -0.33     0.06  -0.10  -0.37
  30   1    -0.12  -0.01   0.06    -0.01   0.05   0.13    -0.01   0.04   0.12
  31   1     0.01  -0.02   0.03     0.05  -0.02  -0.02     0.03  -0.01  -0.02
  32   1     0.05  -0.03  -0.00    -0.05   0.13  -0.00    -0.05   0.12  -0.00
                     37                     38                     39
                        a                      a                      a 
 Frequencies --   937.4721              1491.2197              1496.1592
 Red. masses --    99.0000                99.0000                99.0000
 Frc consts  --    99.0000                99.0000                99.0000
 IR Inten    --    99.0000                99.0000                99.0000
 Raman Activ --     0.0000                 0.0000                 0.0000
 Depolar     --     0.0000                 0.0000                 0.0000
 Atom AN      X      Y      Z        X      Y      Z        X      Y      Z
   1   6     0.22  -0.14   0.05     0.00  -0.00  -0.00     0.00  -0.01   0.00
   2   6    -0.03  -0.18   0.11     0.00  -0.02   0.01     0.01  -0.01   0.00
   3   6    -0.08   0.24  -0.16     0.02   0.05  -0.04     0.05   0.07  -0.05
   4   6    -0.13   0.08   0.03    -0.02   0.01  -0.00    -0.04   0.01   0.01
   5   6    -0.12  -0.09   0.08    -0.06  -0.13   0.12    -0.05  -0.14   0.10
   6   6     0.12  -0.09  -0.08    -0.06   0.13   0.12     0.05  -0.14  -0.10
   7   6     0.13   0.08  -0.02    -0.03   0.02   0.02     0.04   0.01  -0.00
   8   6     0.08   0.23   0.16     0.03  -0.05  -0.04    -0.05   0.07   0.06
   9   6     0.02  -0.18  -0.12     0.01   0.01   0.00    -0.01  -0.01  -0.00
  10   6    -0.21  -0.14  -0.05     0.00   0.00   0.00    -0.00  -0.01  -0.00
  11   1    -0.16   0.07  -0.00    -0.00   0.00   0.00     0.00   0.03   0.00
  12   1    -0.09   0.07  -0.05    -0.00   0.00  -0.00    -0.00   0.01  -0.03
  13   1     0.35   0.08  -0.17    -0.01  -0.00   0.00    -0.02  -0.01   0.01
  14   1    -0.05  -0.03   0.03     0.00   0.02  -0.04    -0.01   0.01  -0.01
  15   1    -0.12   0.01   0.03     0.01   0.04   0.00    -0.00   0.02  -0.00
  16   1    -0.03   0.05  -0.01    -0.02  -0.05   0.15    -0.04  -0.07   0.23
  17   1    -0.06   0.12  -0.04    -0.06  -0.14  -0.01    -0.11  -0.22  -0.01
  18   1    -0.01   0.03  -0.03     0.01  -0.02   0.03     0.03  -0.00  -0.02
  19   1    -0.02  -0.02   0.01    -0.01  -0.03   0.00     0.04   0.01   0.00
  20   1    -0.01  -0.03   0.02     0.20   0.40  -0.00     0.18   0.36  -0.00
  21   1    -0.07  -0.01   0.03     0.04   0.13  -0.44     0.05   0.10  -0.39
  22   1     0.07  -0.01  -0.03     0.04  -0.12  -0.43    -0.05   0.09   0.39
  23   1     0.01  -0.03  -0.02     0.20  -0.40  -0.01    -0.18   0.37   0.01
  24   1     0.02  -0.02  -0.01     0.02  -0.04   0.00    -0.04  -0.00  -0.00
  25   1     0.01   0.02   0.03     0.03   0.00  -0.04    -0.02  -0.01   0.01
  26   1     0.03   0.05   0.01    -0.02   0.05   0.15     0.04  -0.07  -0.23
  27   1     0.05   0.11   0.04    -0.06   0.14  -0.00     0.11  -0.22   0.01
  28   1     0.11   0.01  -0.03     0.00  -0.02  -0.00    -0.00   0.03   0.00
  29   1     0.05  -0.03  -0.03    -0.00  -0.01  -0.02     0.01   0.01   0.02
  30   1     0.09   0.06   0.05    -0.00  -0.00  -0.01     0.00   0.01   0.03
  31   1    -0.34   0.07   0.17    -0.01   0.00   0.00     0.02  -0.01  -0.01
  32   1     0.15   0.07  -0.00     0.00  -0.01   0.00    -0.00   0.03  -0.00
                     40                     41                     42
                        a                      a                      a 
 Frequencies --  1221.2609              1500.2750              1491.6134
 Red. masses --    99.0000                99.0000                99.0000
 Frc consts  --    99.0000                99.0000                99.0000
 IR Inten    --    99.0000                99.0000                99.0000
 Raman Activ --     0.0000                 0.0000                 0.0000
 Depolar     --     0.0000                 0.0000                 0.0000
 Atom AN      X      Y      Z        X      Y      Z        X      Y      Z
   1   6     0.05   0.13   0.15    -0.00   0.02  -0.01     0.01   0.01  -0.01
   2   6    -0.07  -0.19  -0.21    -0.02   0.01  -0.00    -0.02  -0.05   0.03
   3   6     0.09   0.11   0.11    -0.06  -0.14   0.10    -0.02   0.01   0.00
   4   6    -0.02  -0.10  -0.01    -0.02  -0.07   0.05     0.07   0.14  -0.11
   5   6     0.04   0.01  -0.08    -0.03  -0.04   0.04     0.03   0.00  -0.01
   6   6    -0.04   0.01   0.08    -0.03   0.04   0.04    -0.02  -0.02  -0.01
   7   6     0.02  -0.10   0.01    -0.02   0.07   0.05    -0.07   0.13   0.11
   8   6    -0.10   0.11  -0.10    -0.06   0.13   0.10     0.02   0.02   0.00
   9   6     0.07  -0.19   0.20    -0.02  -0.01   0.00     0.02  -0.05  -0.04
  10   6    -0.05   0.14  -0.15    -0.00  -0.02  -0.01    -0.01   0.01   0.01
  11   1    -0.17  -0.07   0.02    -0.01  -0.09  -0.00    -0.02  -0.04  -0.00
  12   1     0.19  -0.00  -0.11     0.00  -0.03   0.08    -0.01  -0.02   0.05
  13   1    -0.05  -0.05  -0.06     0.04   0.02  -0.03     0.01   0.00  -0.01
  14   1    -0.15  -0.05   0.13     0.01  -0.01   0.01     0.03   0.04  -0.14
  15   1     0.14   0.10  -0.04     0.01  -0.02   0.00     0.07   0.13   0.01
  16   1    -0.13   0.14  -0.09     0.06   0.12  -0.39     0.02  -0.00  -0.02
  17   1     0.04  -0.12   0.02     0.18   0.38   0.02     0.02   0.01   0.00
  18   1    -0.18   0.04   0.03     0.02   0.04  -0.16    -0.10  -0.11   0.42
  19   1     0.08  -0.00   0.00     0.06   0.15   0.01    -0.19  -0.41  -0.02
  20   1     0.08   0.00  -0.02     0.07   0.13  -0.00    -0.01  -0.01  -0.00
  21   1    -0.20   0.10   0.01     0.02   0.04  -0.14    -0.01  -0.00   0.01
  22   1     0.20   0.10  -0.01     0.02  -0.04  -0.14    -0.00   0.02   0.06
  23   1    -0.08   0.00   0.02     0.07  -0.13  -0.00    -0.02   0.06   0.00
  24   1    -0.08  -0.00  -0.00     0.06  -0.15   0.00     0.19  -0.41   0.01
  25   1     0.18   0.04  -0.03     0.02  -0.04  -0.16     0.09  -0.11  -0.43
  26   1     0.13   0.14   0.09     0.06  -0.11  -0.39    -0.02  -0.01  -0.00
  27   1    -0.04  -0.12  -0.02     0.18  -0.37   0.01    -0.01  -0.01   0.00
  28   1    -0.14   0.10   0.04     0.01   0.01   0.00    -0.07   0.13  -0.00
  29   1     0.15  -0.05  -0.13     0.01   0.01   0.01    -0.02   0.04   0.14
  30   1    -0.19  -0.01   0.11     0.01   0.03   0.08     0.01  -0.01  -0.05
  31   1     0.05  -0.05   0.06     0.04  -0.02  -0.02    -0.01   0.00   0.01
  32   1     0.17  -0.07  -0.03    -0.02   0.08  -0.00     0.02  -0.04   0.00
                     43                     44                     45
                        a                      a                      a 
 Frequencies --  1501.2317              1504.3031              1076.9764
 Red. masses --    99.0000                99.0000                99.0000
 Frc consts  --    99.0000                99.0000                99.0000
 IR Inten    --    99.0000                99.0000                99.0000
 Raman Activ --     0.0000                 0.0000                 0.0000
 Depolar     --     0.0000                 0.0000                 0.0000
 Atom AN      X      Y      Z        X      Y      Z        X      Y      Z
   1   6     0.01  -0.00  -0.00     0.01   0.00   0.01     0.25   0.10  -0.15
   2   6    -0.03  -0.09   0.06    -0.04  -0.08   0.06    -0.30  -0.08   0.17
   3   6     0.04   0.10  -0.07     0.02   0.03  -0.02    -0.21   0.02  -0.00
   4   6    -0.00  -0.02   0.01    -0.06  -0.11   0.09     0.13   0.12  -0.05
   5   6     0.03   0.07  -0.05    -0.00   0.02  -0.01    -0.03  -0.13   0.00
   6   6    -0.03   0.07   0.05    -0.00  -0.02  -0.01    -0.04   0.13   0.01
   7   6     0.00  -0.01  -0.01    -0.06   0.11   0.09     0.12  -0.12  -0.05
   8   6    -0.04   0.10   0.08     0.02  -0.02  -0.02    -0.20  -0.02  -0.00
   9   6     0.02  -0.09  -0.06    -0.04   0.08   0.07    -0.30   0.08   0.18
  10   6    -0.01  -0.00  -0.00     0.01  -0.01   0.01     0.24  -0.10  -0.16
  11   1    -0.02   0.01  -0.00     0.00  -0.02   0.00     0.19  -0.03  -0.03
  12   1    -0.01   0.01  -0.00    -0.03   0.02   0.00     0.15  -0.03  -0.01
  13   1    -0.02  -0.01   0.01    -0.02  -0.02  -0.02    -0.05  -0.02   0.04
  14   1     0.03   0.08  -0.25     0.04   0.08  -0.25    -0.06  -0.03   0.02
  15   1     0.11   0.25   0.01     0.11   0.24   0.01    -0.02  -0.08   0.05
  16   1    -0.05  -0.10   0.30    -0.02  -0.04   0.12    -0.04  -0.02   0.04
  17   1    -0.13  -0.29  -0.01    -0.06  -0.11  -0.00     0.08  -0.03   0.00
  18   1     0.02   0.02  -0.07     0.06   0.10  -0.35     0.05   0.04  -0.06
  19   1     0.03   0.07   0.00     0.16   0.34   0.01     0.16  -0.08  -0.01
  20   1    -0.09  -0.19   0.00    -0.02  -0.07   0.00     0.20  -0.06   0.00
  21   1    -0.02  -0.05   0.20     0.01  -0.03   0.06    -0.07  -0.02   0.06
  22   1     0.02  -0.05  -0.21     0.01   0.02   0.06    -0.07   0.02   0.06
  23   1     0.09  -0.20  -0.00    -0.02   0.07   0.00     0.20   0.06   0.00
  24   1    -0.03   0.07   0.00     0.16  -0.34   0.00     0.16   0.08  -0.01
  25   1    -0.02   0.02   0.07     0.06  -0.10  -0.36     0.04  -0.04  -0.06
  26   1     0.05  -0.09  -0.32    -0.02   0.03   0.12    -0.04   0.02   0.04
  27   1     0.14  -0.30   0.01    -0.06   0.11  -0.00     0.08   0.03   0.00
  28   1    -0.11   0.25  -0.00     0.11  -0.23   0.01    -0.02   0.08   0.05
  29   1    -0.03   0.08   0.26     0.04  -0.07  -0.25    -0.06   0.03   0.03
  30   1     0.02   0.01   0.00    -0.05  -0.03  -0.01     0.15   0.03  -0.01
  31   1     0.02  -0.01  -0.01    -0.03   0.04  -0.05    -0.05   0.02   0.04
  32   1     0.01   0.01  -0.00     0.01   0.04   0.00     0.19   0.03  -0.03
                     46                     47                     48
                        a                      a                      a 
 Frequencies --  1096.1882              1101.3294              1254.1126
 Red. masses --    99.0000                99.0000                99.0000
 Frc consts  --    99.0000                99.0000                99.0000
 IR Inten    --    99.0000                99.0000                99.0000
 Raman Activ --     0.0000                 0.0000                 0.0000
 Depolar     --     0.0000                 0.0000                 0.0000
 Atom AN      X      Y      Z        X      Y      Z        X      Y      Z
   1   6    -0.04   0.05  -0.03     0.19   0.15  -0.13    -0.02  -0.11  -0.05
   2   6     0.02  -0.04   0.03    -0.29  -0.08   0.11    -0.02   0.13   0.00
   3   6     0.25   0.08  -0.14     0.20   0.08  -0.08    -0.09   0.04   0.08
   4   6    -0.38   0.17   0.04    -0.23  -0.08   0.07    -0.17  -0.04  -0.11
   5   6     0.05  -0.20   0.08    -0.12   0.05   0.09    -0.02   0.16   0.08
   6   6     0.05   0.20   0.08     0.12   0.05  -0.09    -0.01  -0.16   0.08
   7   6    -0.38  -0.17   0.04     0.23  -0.08  -0.07    -0.17   0.05  -0.12
   8   6     0.25  -0.07  -0.14    -0.20   0.08   0.08    -0.08  -0.04   0.08
   9   6     0.02   0.04   0.03     0.28  -0.08  -0.12    -0.02  -0.13   0.00
  10   6    -0.04  -0.06  -0.03    -0.18   0.14   0.14    -0.03   0.11  -0.05
  11   1     0.05  -0.02  -0.00     0.16  -0.05  -0.03     0.05   0.05  -0.01
  12   1     0.03  -0.02   0.01     0.18  -0.04  -0.02    -0.11   0.01   0.04
  13   1    -0.08  -0.02   0.04    -0.10  -0.03   0.04     0.08   0.03   0.00
  14   1     0.01  -0.00  -0.01    -0.06  -0.03   0.04     0.24  -0.07  -0.03
  15   1     0.03  -0.03   0.01    -0.07  -0.00   0.03    -0.08   0.02  -0.00
  16   1     0.14  -0.02  -0.03     0.20  -0.05  -0.03     0.24  -0.10  -0.02
  17   1     0.19  -0.02  -0.03     0.14  -0.05  -0.02     0.09  -0.09   0.02
  18   1    -0.17   0.09  -0.02     0.02  -0.07   0.05     0.24  -0.18   0.08
  19   1    -0.11   0.01   0.01    -0.04  -0.00   0.02     0.14   0.02  -0.02
  20   1     0.17  -0.09   0.02    -0.05  -0.03   0.02     0.19  -0.18   0.02
  21   1     0.09  -0.10   0.06     0.12  -0.05  -0.02     0.01   0.06  -0.06
  22   1     0.09   0.10   0.06    -0.11  -0.05   0.02    -0.00  -0.06  -0.07
  23   1     0.17   0.09   0.02     0.05  -0.03  -0.02     0.19   0.18   0.02
  24   1    -0.11  -0.02   0.01     0.04   0.00  -0.02     0.13  -0.02  -0.02
  25   1    -0.17  -0.09  -0.02    -0.02  -0.07  -0.05     0.24   0.18   0.09
  26   1     0.15   0.02  -0.03    -0.20  -0.05   0.03     0.24   0.10  -0.02
  27   1     0.19   0.02  -0.03    -0.14  -0.05   0.02     0.08   0.08   0.02
  28   1     0.03   0.03   0.01     0.07  -0.00  -0.03    -0.09  -0.02  -0.00
  29   1     0.01   0.01  -0.01     0.06  -0.03  -0.04     0.24   0.08  -0.03
  30   1     0.04   0.02   0.01    -0.18  -0.04   0.02    -0.11  -0.01   0.04
  31   1    -0.09   0.02   0.04     0.10  -0.03  -0.05     0.07  -0.03   0.00
  32   1     0.05   0.02  -0.00    -0.16  -0.05   0.03     0.06  -0.05  -0.01
                     49                     50                     51
                        a                      a                      a 
 Frequencies --  1076.6154              1120.3748              1112.7833
 Red. masses --    99.0000                99.0000                99.0000
 Frc consts  --    99.0000                99.0000                99.0000
 IR Inten    --    99.0000                99.0000                99.0000
 Raman Activ --     0.0000                 0.0000                 0.0000
 Depolar     --     0.0000                 0.0000                 0.0000
 Atom AN      X      Y      Z        X      Y      Z        X      Y      Z
   1   6     0.26   0.04  -0.09     0.08  -0.08   0.01     0.22   0.02  -0.06
   2   6    -0.29  -0.02   0.08    -0.10   0.25  -0.10    -0.30   0.16  -0.03
   3   6    -0.26  -0.04   0.11     0.22  -0.24   0.04     0.25  -0.16   0.06
   4   6     0.27   0.04  -0.10    -0.14   0.09   0.02    -0.06  -0.16   0.08
   5   6     0.26  -0.02  -0.10     0.16  -0.12  -0.06    -0.01   0.13  -0.03
   6   6    -0.26  -0.02   0.10    -0.16  -0.12   0.06    -0.01  -0.12  -0.03
   7   6    -0.28   0.04   0.11     0.14   0.09  -0.02    -0.07   0.15   0.08
   8   6     0.26  -0.04  -0.11    -0.22  -0.24  -0.04     0.25   0.16   0.06
   9   6     0.30  -0.01  -0.09     0.10   0.24   0.10    -0.30  -0.16  -0.03
  10   6    -0.26   0.04   0.10    -0.08  -0.08  -0.01     0.22  -0.02  -0.07
  11   1     0.09  -0.00  -0.02    -0.04   0.05  -0.00     0.04   0.02  -0.02
  12   1     0.10  -0.00  -0.03    -0.07   0.04  -0.01     0.06   0.01  -0.03
  13   1     0.05   0.00  -0.02     0.14   0.04  -0.05     0.08   0.02  -0.04
  14   1    -0.08  -0.01   0.03    -0.16   0.14  -0.05    -0.20   0.10  -0.00
  15   1    -0.09   0.00   0.02    -0.15   0.11  -0.03    -0.21   0.12  -0.01
  16   1    -0.06  -0.01   0.03     0.04  -0.06   0.04     0.12  -0.07   0.00
  17   1    -0.09  -0.02   0.03     0.12  -0.06   0.01     0.07  -0.08   0.02
  18   1     0.08   0.01  -0.03    -0.17   0.10  -0.03    -0.06  -0.03   0.05
  19   1     0.07   0.02  -0.03    -0.15   0.04   0.00    -0.10   0.02   0.02
  20   1     0.09   0.00  -0.03     0.13  -0.04  -0.01    -0.11   0.04  -0.01
  21   1     0.06  -0.00  -0.02    -0.04  -0.00   0.02     0.00   0.04  -0.04
  22   1    -0.06  -0.00   0.01     0.04  -0.00  -0.02     0.00  -0.04  -0.04
  23   1    -0.09   0.00   0.03    -0.13  -0.04   0.01    -0.11  -0.04  -0.01
  24   1    -0.07   0.01   0.03     0.15   0.04  -0.00    -0.10  -0.02   0.02
  25   1    -0.08   0.01   0.04     0.17   0.10   0.03    -0.06   0.03   0.05
  26   1     0.06  -0.01  -0.03    -0.04  -0.06  -0.04     0.12   0.07   0.01
  27   1     0.09  -0.02  -0.03    -0.12  -0.06  -0.01     0.07   0.07   0.02
  28   1     0.09   0.00  -0.02     0.15   0.11   0.03    -0.21  -0.12  -0.01
  29   1     0.08  -0.01  -0.04     0.16   0.14   0.05    -0.20  -0.10  -0.00
  30   1    -0.10  -0.01   0.03     0.08   0.04   0.01     0.06  -0.01  -0.04
  31   1    -0.05  -0.00   0.02    -0.14   0.04   0.06     0.08  -0.02  -0.04
  32   1    -0.09  -0.01   0.02     0.04   0.05   0.00     0.04  -0.02  -0.02
                     52                     53                     54
                        a                      a                      a 
 Frequencies --  1144.6538              1252.5646              1132.4643
 Red. masses --    99.0000                99.0000                99.0000
 Frc consts  --    99.0000                99.0000                99.0000
 IR Inten    --    99.0000                99.0000                99.0000
 Raman Activ --     0.0000                 0.0000                 0.0000
 Depolar     --     0.0000                 0.0000                 0.0000
 Atom AN      X      Y      Z        X      Y      Z        X      Y      Z
   1   6     0.00   0.14  -0.07     0.02  -0.02   0.12     0.09  -0.04  -0.00
   2   6    -0.04  -0.25   0.13    -0.05   0.08  -0.11    -0.11   0.14  -0.05
   3   6     0.06   0.26  -0.13    -0.14  -0.02  -0.01     0.01  -0.17   0.10
   4   6    -0.09  -0.24   0.10    -0.06   0.14   0.11     0.19  -0.15   0.07
   5   6     0.03   0.24  -0.05    -0.09  -0.03  -0.14    -0.37   0.16   0.03
   6   6     0.03  -0.25  -0.05     0.09  -0.02   0.13     0.37   0.16  -0.03
   7   6    -0.09   0.24   0.11     0.07   0.13  -0.10    -0.19  -0.15  -0.07
   8   6     0.06  -0.26  -0.14     0.15  -0.02   0.00    -0.01  -0.18  -0.10
   9   6    -0.04   0.24   0.14     0.05   0.08   0.10     0.12   0.14   0.05
  10   6     0.00  -0.14  -0.07    -0.02  -0.02  -0.12    -0.09  -0.04   0.00
  11   1     0.10  -0.06  -0.01    -0.12   0.00   0.02    -0.02   0.03  -0.00
  12   1     0.13  -0.05   0.00     0.03   0.02  -0.06    -0.02   0.02  -0.01
  13   1    -0.16  -0.04   0.06     0.07  -0.00  -0.06     0.09   0.02  -0.03
  14   1     0.07  -0.11   0.05    -0.06   0.02   0.02    -0.10   0.07  -0.02
  15   1     0.06  -0.07   0.04     0.24  -0.07  -0.02    -0.10   0.06  -0.01
  16   1     0.05   0.06  -0.06     0.11  -0.09   0.03    -0.03  -0.03   0.04
  17   1    -0.02   0.05  -0.04     0.24  -0.10   0.00    -0.03  -0.03   0.03
  18   1     0.04  -0.11   0.07     0.11   0.01  -0.07     0.05  -0.04   0.02
  19   1    -0.01  -0.00   0.03     0.24  -0.20   0.03     0.10  -0.09   0.02
  20   1    -0.15   0.04  -0.01     0.05   0.06  -0.03    -0.23   0.13   0.01
  21   1     0.02   0.08  -0.08     0.22  -0.17   0.08    -0.19   0.09   0.01
  22   1     0.02  -0.07  -0.08    -0.22  -0.16  -0.08     0.19   0.09  -0.01
  23   1    -0.15  -0.04  -0.01    -0.06   0.05   0.03     0.23   0.13  -0.01
  24   1    -0.01   0.00   0.03    -0.24  -0.19  -0.03    -0.10  -0.09  -0.02
  25   1     0.05   0.11   0.07    -0.12   0.00   0.06    -0.05  -0.04  -0.02
  26   1     0.05  -0.06  -0.06    -0.12  -0.09  -0.03     0.03  -0.03  -0.04
  27   1    -0.02  -0.04  -0.04    -0.24  -0.10  -0.01     0.03  -0.03  -0.03
  28   1     0.06   0.07   0.04    -0.23  -0.07   0.02     0.10   0.06   0.01
  29   1     0.07   0.11   0.05     0.04   0.02  -0.01     0.11   0.07   0.02
  30   1     0.13   0.05   0.00    -0.02   0.02   0.05     0.02   0.02   0.01
  31   1    -0.16   0.04   0.07    -0.07  -0.00   0.06    -0.09   0.02   0.04
  32   1     0.10   0.06  -0.01     0.11   0.01  -0.02     0.02   0.03   0.00
                     55                     56                     57
                        a                      a                      a 
 Frequencies --  1265.6009              1274.8943              1292.1157
 Red. masses --    99.0000                99.0000                99.0000
 Frc consts  --    99.0000                99.0000                99.0000
 IR Inten    --    99.0000                99.0000                99.0000
 Raman Activ --     0.0000                 0.0000                 0.0000
 Depolar     --     0.0000                 0.0000                 0.0000
 Atom AN      X      Y      Z        X      Y      Z        X      Y      Z
   1   6    -0.03  -0.01  -0.13    -0.03  -0.10  -0.06     0.02   0.06   0.05
   2   6     0.06  -0.06   0.09    -0.05   0.06  -0.04     0.04  -0.01   0.05
   3   6     0.12   0.04   0.09    -0.05   0.11   0.12     0.01  -0.10  -0.12
   4   6     0.08  -0.08  -0.16    -0.09  -0.07  -0.03    -0.01  -0.03  -0.10
   5   6     0.01  -0.08   0.07    -0.01   0.06  -0.09     0.01   0.05   0.12
   6   6     0.02   0.07   0.08     0.01   0.06   0.10     0.02  -0.05   0.11
   7   6     0.08   0.08  -0.16     0.09  -0.07   0.03    -0.02   0.03  -0.11
   8   6     0.13  -0.04   0.09     0.05   0.11  -0.12     0.01   0.10  -0.12
   9   6     0.06   0.06   0.09     0.05   0.06   0.04     0.04   0.00   0.06
  10   6    -0.03   0.01  -0.13     0.03  -0.10   0.06     0.02  -0.06   0.05
  11   1     0.12   0.01  -0.02     0.07   0.04  -0.01    -0.05  -0.02   0.01
  12   1    -0.06  -0.02   0.07    -0.10   0.00   0.04     0.06   0.00  -0.02
  13   1    -0.05   0.01   0.06     0.06   0.03   0.00    -0.03  -0.01  -0.00
  14   1     0.12  -0.05  -0.01     0.35  -0.17   0.01    -0.28   0.16  -0.03
  15   1    -0.30   0.11   0.01    -0.18   0.11  -0.01     0.18  -0.12   0.02
  16   1    -0.05   0.08  -0.06     0.09   0.01  -0.06     0.02  -0.07   0.06
  17   1    -0.28   0.07   0.01     0.18  -0.17   0.03    -0.15   0.15  -0.03
  18   1    -0.22   0.06   0.05     0.08  -0.08   0.04     0.18  -0.12   0.05
  19   1    -0.08   0.13  -0.04     0.14  -0.03  -0.00    -0.23   0.16  -0.03
  20   1     0.12  -0.09   0.02     0.22  -0.08  -0.02     0.18  -0.17   0.03
  21   1    -0.18   0.08   0.00    -0.19   0.10   0.00    -0.13   0.10  -0.03
  22   1    -0.18  -0.08  -0.00     0.19   0.10  -0.00    -0.14  -0.10  -0.03
  23   1     0.12   0.09   0.02    -0.21  -0.07   0.02     0.19   0.17   0.03
  24   1    -0.08  -0.14  -0.04    -0.15  -0.04   0.00    -0.21  -0.16  -0.03
  25   1    -0.22  -0.06   0.06    -0.07  -0.08  -0.04     0.17   0.12   0.05
  26   1    -0.06  -0.08  -0.06    -0.09   0.01   0.06     0.04   0.08   0.06
  27   1    -0.28  -0.07   0.02    -0.17  -0.17  -0.03    -0.16  -0.16  -0.03
  28   1    -0.31  -0.11   0.02     0.18   0.11   0.01     0.18   0.12   0.02
  29   1     0.12   0.05  -0.01    -0.35  -0.17  -0.01    -0.28  -0.16  -0.03
  30   1    -0.05   0.02   0.07     0.10   0.00  -0.04     0.06   0.00  -0.02
  31   1    -0.05  -0.01   0.06    -0.06   0.03  -0.00    -0.03   0.01  -0.00
  32   1     0.12  -0.01  -0.02    -0.07   0.04   0.01    -0.05   0.02   0.01
                     58                     59                     60
                        a                      a                      a 
 Frequencies --  1288.4411              1280.9351              1297.4384
 Red. masses --    99.0000                99.0000                99.0000
 Frc consts  --    99.0000                99.0000                99.0000
 IR Inten    --    99.0000                99.0000                99.0000
 Raman Activ --     0.0000                 0.0000                 0.0000
 Depolar     --     0.0000                 0.0000                 0.0000
 Atom AN      X      Y      Z        X      Y      Z        X      Y      Z
   1   6     0.00   0.01  -0.00    -0.00  -0.01   0.01     0.01  -0.00   0.07
   2   6    -0.01  -0.07  -0.08     0.01   0.07   0.08    -0.05   0.06   0.01
   3   6    -0.01  -0.04  -0.04    -0.02   0.03   0.03    -0.10  -0.04  -0.13
   4   6     0.09   0.10   0.11    -0.02  -0.05  -0.07    -0.00  -0.08  -0.03
   5   6    -0.04   0.00   0.06    -0.03  -0.00  -0.06     0.02   0.09   0.04
   6   6     0.05   0.01  -0.07    -0.03   0.01  -0.05    -0.02   0.09  -0.04
   7   6    -0.09   0.10  -0.10    -0.02   0.06  -0.06     0.00  -0.08   0.03
   8   6     0.01  -0.05   0.04    -0.02  -0.03   0.03     0.10  -0.04   0.13
   9   6     0.01  -0.07   0.08     0.02  -0.07   0.08     0.05   0.06  -0.01
  10   6    -0.00   0.01  -0.00    -0.00   0.01   0.01    -0.02   0.00  -0.07
  11   1    -0.00  -0.01  -0.00    -0.00   0.01   0.00    -0.05   0.00   0.01
  12   1     0.00   0.00  -0.00    -0.00   0.00   0.00     0.03   0.01  -0.04
  13   1    -0.02  -0.01  -0.01     0.02   0.01   0.01     0.04   0.00  -0.03
  14   1     0.07  -0.08   0.04    -0.08   0.09  -0.04    -0.09   0.06  -0.02
  15   1    -0.11   0.11  -0.02     0.13  -0.12   0.02     0.25  -0.14   0.01
  16   1    -0.37   0.16   0.02     0.36  -0.16  -0.00     0.09  -0.11   0.06
  17   1     0.31  -0.12  -0.00    -0.29   0.12   0.00     0.09   0.03  -0.03
  18   1     0.21  -0.03  -0.05    -0.24   0.08   0.03     0.27  -0.17   0.04
  19   1    -0.27   0.03   0.02     0.28  -0.09  -0.01    -0.24   0.13  -0.01
  20   1    -0.06   0.01   0.02    -0.04   0.06  -0.02     0.16  -0.12   0.01
  21   1     0.12  -0.06  -0.01     0.08  -0.06   0.01    -0.24   0.17  -0.06
  22   1    -0.12  -0.05   0.01     0.08   0.06   0.01     0.24   0.17   0.06
  23   1     0.05   0.00  -0.02    -0.04  -0.06  -0.02    -0.16  -0.12  -0.01
  24   1     0.28   0.04  -0.02     0.28   0.09  -0.01     0.24   0.13   0.02
  25   1    -0.22  -0.04   0.05    -0.24  -0.08   0.03    -0.27  -0.17  -0.04
  26   1     0.37   0.15  -0.02     0.36   0.16  -0.00    -0.10  -0.10  -0.06
  27   1    -0.30  -0.11   0.00    -0.30  -0.13   0.00    -0.09   0.03   0.03
  28   1     0.10   0.10   0.02     0.13   0.12   0.02    -0.25  -0.14  -0.01
  29   1    -0.05  -0.07  -0.04    -0.09  -0.09  -0.05     0.09   0.06   0.02
  30   1    -0.01   0.00   0.01    -0.00  -0.00   0.00    -0.03   0.01   0.04
  31   1     0.02  -0.01   0.01     0.02  -0.01   0.01    -0.04   0.00   0.03
  32   1     0.00  -0.01   0.00    -0.01  -0.01   0.00     0.05   0.00  -0.01
                     61                     62                     63
                        a                      a                      a 
 Frequencies --  1326.5870              1322.4294              1366.6493
 Red. masses --    99.0000                99.0000                99.0000
 Frc consts  --    99.0000                99.0000                99.0000
 IR Inten    --    99.0000                99.0000                99.0000
 Raman Activ --     0.0000                 0.0000                 0.0000
 Depolar     --     0.0000                 0.0000                 0.0000
 Atom AN      X      Y      Z        X      Y      Z        X      Y      Z
   1   6     0.00   0.07  -0.04     0.00   0.07  -0.05    -0.00   0.05  -0.03
   2   6     0.17  -0.10   0.02     0.17  -0.11   0.01     0.24  -0.09  -0.00
   3   6     0.04  -0.09   0.03     0.08  -0.09   0.04    -0.16   0.05   0.02
   4   6    -0.08   0.08  -0.06    -0.11   0.11  -0.01    -0.11   0.02   0.01
   5   6    -0.19   0.08  -0.07    -0.12   0.14  -0.02     0.20  -0.15  -0.02
   6   6     0.19   0.07   0.07    -0.12  -0.14  -0.02     0.18   0.14  -0.02
   7   6     0.08   0.08   0.06    -0.11  -0.11  -0.01    -0.10  -0.02   0.01
   8   6    -0.04  -0.09  -0.03     0.08   0.09   0.05    -0.15  -0.05   0.02
   9   6    -0.18  -0.10  -0.02     0.17   0.11   0.01     0.22   0.09  -0.01
  10   6    -0.00   0.07   0.04     0.00  -0.07  -0.05    -0.00  -0.05  -0.03
  11   1    -0.01  -0.03  -0.01    -0.01  -0.03  -0.01    -0.03  -0.03  -0.01
  12   1     0.00  -0.01   0.03     0.00  -0.01   0.03    -0.02  -0.00   0.04
  13   1    -0.09  -0.02   0.04    -0.10  -0.03   0.04    -0.08  -0.02   0.04
  14   1    -0.23   0.11  -0.01    -0.21   0.09   0.00    -0.22   0.11   0.01
  15   1    -0.20   0.09   0.00    -0.23   0.11  -0.00    -0.22   0.09  -0.01
  16   1    -0.09   0.03  -0.01    -0.15   0.07  -0.02     0.16  -0.08  -0.01
  17   1    -0.13   0.07   0.00    -0.12   0.06   0.01     0.14  -0.06   0.01
  18   1     0.19  -0.10   0.02     0.15  -0.06   0.01     0.09  -0.04  -0.01
  19   1     0.13  -0.06  -0.01     0.20  -0.12   0.01     0.12  -0.03   0.01
  20   1     0.35  -0.15  -0.02     0.10  -0.04  -0.01    -0.18   0.09  -0.00
  21   1     0.05  -0.04   0.03     0.30  -0.13  -0.03    -0.30   0.13   0.03
  22   1    -0.05  -0.04  -0.03     0.30   0.13  -0.03    -0.29  -0.12   0.03
  23   1    -0.35  -0.15   0.01     0.09   0.04  -0.01    -0.17  -0.08  -0.00
  24   1    -0.13  -0.06   0.01     0.20   0.12   0.01     0.11   0.03   0.00
  25   1    -0.20  -0.10  -0.02     0.15   0.06   0.00     0.08   0.04  -0.01
  26   1     0.10   0.03   0.00    -0.15  -0.07  -0.02     0.16   0.08  -0.01
  27   1     0.13   0.07  -0.00    -0.12  -0.06   0.01     0.14   0.06   0.01
  28   1     0.20   0.09  -0.00    -0.23  -0.11  -0.00    -0.21  -0.09  -0.01
  29   1     0.24   0.11   0.01    -0.21  -0.09   0.00    -0.21  -0.10   0.01
  30   1    -0.01  -0.00  -0.03     0.00   0.01   0.03    -0.02   0.00   0.04
  31   1     0.09  -0.02  -0.04    -0.10   0.02   0.04    -0.08   0.02   0.04
  32   1     0.01  -0.03   0.01    -0.01   0.03  -0.01    -0.03   0.03  -0.01
                     64                     65                     66
                        a                      a                      a 
 Frequencies --  1368.0609              1378.1736              1380.9635
 Red. masses --    99.0000                99.0000                99.0000
 Frc consts  --    99.0000                99.0000                99.0000
 IR Inten    --    99.0000                99.0000                99.0000
 Raman Activ --     0.0000                 0.0000                 0.0000
 Depolar     --     0.0000                 0.0000                 0.0000
 Atom AN      X      Y      Z        X      Y      Z        X      Y      Z
   1   6    -0.00   0.05  -0.03    -0.02   0.02  -0.01    -0.03   0.02  -0.00
   2   6     0.23  -0.09  -0.01     0.15  -0.06  -0.01     0.13  -0.05  -0.00
   3   6    -0.17   0.05   0.00    -0.24   0.12  -0.02    -0.21   0.13  -0.00
   4   6    -0.10   0.02   0.03     0.24  -0.12   0.02     0.25  -0.14   0.00
   5   6     0.24  -0.05   0.02    -0.16   0.11   0.01    -0.21   0.04   0.00
   6   6    -0.25  -0.05  -0.02    -0.16  -0.11   0.01     0.21   0.04  -0.00
   7   6     0.10   0.02  -0.03     0.24   0.12   0.02    -0.25  -0.14  -0.00
   8   6     0.18   0.06  -0.01    -0.23  -0.12  -0.02     0.21   0.13   0.00
   9   6    -0.24  -0.10   0.01     0.15   0.06  -0.01    -0.13  -0.05   0.00
  10   6     0.00   0.05   0.03    -0.02  -0.02  -0.01     0.03   0.02   0.00
  11   1    -0.03  -0.03  -0.01     0.00  -0.02  -0.00     0.01  -0.02  -0.00
  12   1    -0.02  -0.00   0.04     0.01  -0.01   0.02     0.01  -0.01   0.01
  13   1    -0.08  -0.02   0.03    -0.02  -0.00   0.01    -0.01   0.00   0.00
  14   1    -0.21   0.10   0.01    -0.11   0.05   0.01    -0.09   0.05   0.01
  15   1    -0.21   0.09  -0.01    -0.12   0.05  -0.01    -0.10   0.04  -0.01
  16   1     0.14  -0.07  -0.01     0.18  -0.09   0.01     0.20  -0.09   0.01
  17   1     0.18  -0.07   0.01     0.21  -0.10   0.00     0.17  -0.09   0.00
  18   1     0.12  -0.06  -0.01    -0.18   0.08  -0.01    -0.27   0.12  -0.02
  19   1     0.08  -0.03   0.01    -0.22   0.10  -0.00    -0.19   0.11  -0.01
  20   1    -0.26   0.10   0.01     0.13  -0.07   0.00     0.17  -0.04  -0.00
  21   1    -0.13   0.09  -0.02     0.20  -0.09  -0.02     0.10  -0.06  -0.01
  22   1     0.15   0.10   0.02     0.20   0.09  -0.02    -0.10  -0.06   0.01
  23   1     0.27   0.10  -0.01     0.13   0.07   0.00    -0.17  -0.04   0.00
  24   1    -0.08  -0.03  -0.01    -0.22  -0.10  -0.00     0.19   0.11   0.01
  25   1    -0.13  -0.06   0.01    -0.18  -0.08  -0.01     0.27   0.12   0.02
  26   1    -0.15  -0.08   0.01     0.18   0.09   0.01    -0.20  -0.09  -0.01
  27   1    -0.19  -0.07  -0.01     0.21   0.10   0.00    -0.17  -0.09  -0.00
  28   1     0.22   0.09   0.01    -0.12  -0.05  -0.01     0.10   0.04   0.00
  29   1     0.22   0.10  -0.01    -0.11  -0.05   0.01     0.09   0.05  -0.01
  30   1     0.02  -0.00  -0.04     0.01   0.01   0.02    -0.01  -0.01  -0.01
  31   1     0.08  -0.02  -0.04    -0.02   0.00   0.01     0.01   0.00  -0.00
  32   1     0.03  -0.03   0.01     0.00   0.02  -0.00    -0.01  -0.02   0.00
                     67                     68                     69
                        a                      a                      a 
 Frequencies --  1415.7606              1415.7809              2956.1529
 Red. masses --    99.0000                99.0000                99.0000
 Frc consts  --    99.0000                99.0000                99.0000
 IR Inten    --    99.0000                99.0000                99.0000
 Raman Activ --     0.0000                 0.0000                 0.0000
 Depolar     --     0.0000                 0.0000                 0.0000
 Atom AN      X      Y      Z        X      Y      Z        X      Y      Z
   1   6    -0.31   0.00   0.08    -0.29   0.00   0.08    -0.00  -0.00  -0.00
   2   6     0.05  -0.03   0.00     0.05  -0.03   0.00     0.02   0.05   0.07
   3   6    -0.01  -0.01   0.01    -0.01  -0.01   0.01    -0.03  -0.07  -0.12
   4   6    -0.02   0.02  -0.00    -0.02   0.01  -0.00     0.01   0.03   0.08
   5   6     0.01  -0.00  -0.00     0.01  -0.01  -0.00    -0.02  -0.03  -0.05
   6   6    -0.01  -0.00   0.00     0.01   0.01  -0.00     0.01  -0.03   0.05
   7   6     0.02   0.02   0.00    -0.02  -0.01  -0.00    -0.01   0.03  -0.07
   8   6     0.01  -0.01  -0.01    -0.01   0.01   0.01     0.04  -0.08   0.12
   9   6    -0.05  -0.03  -0.00     0.05   0.03   0.00    -0.02   0.05  -0.07
  10   6     0.29   0.00  -0.08    -0.30  -0.00   0.09     0.00  -0.00   0.00
  11   1     0.37  -0.01   0.03     0.35  -0.01   0.03    -0.00  -0.00   0.01
  12   1     0.32  -0.11  -0.15     0.30  -0.11  -0.14     0.01   0.01   0.00
  13   1     0.30   0.14  -0.17     0.28   0.13  -0.16    -0.00  -0.00  -0.00
  14   1    -0.05   0.04  -0.03    -0.05   0.04  -0.03    -0.09  -0.19  -0.07
  15   1    -0.04   0.06  -0.00    -0.04   0.05  -0.00     0.01   0.01  -0.20
  16   1    -0.01  -0.00   0.00    -0.01  -0.00   0.00     0.14   0.29   0.11
  17   1    -0.01  -0.00   0.00    -0.01  -0.00   0.00    -0.02  -0.02   0.35
  18   1     0.03  -0.01   0.00     0.02  -0.01   0.00    -0.06  -0.13  -0.04
  19   1     0.02  -0.01   0.00     0.02  -0.01   0.00     0.01   0.01  -0.26
  20   1    -0.01   0.00   0.00    -0.01   0.00  -0.00    -0.00  -0.00   0.16
  21   1    -0.01   0.00   0.00    -0.01   0.00   0.00     0.06   0.11   0.03
  22   1     0.01   0.00  -0.00    -0.01  -0.00   0.00    -0.06   0.11  -0.03
  23   1     0.01   0.00  -0.00    -0.01  -0.00  -0.00     0.00   0.00  -0.16
  24   1    -0.02  -0.01  -0.00     0.02   0.01   0.00    -0.01   0.00   0.25
  25   1    -0.03  -0.01  -0.00     0.02   0.01   0.00     0.06  -0.12   0.04
  26   1     0.01  -0.00  -0.00    -0.01   0.00   0.00    -0.14   0.29  -0.10
  27   1     0.01  -0.00  -0.00    -0.01   0.00   0.00     0.01  -0.01  -0.35
  28   1     0.04   0.05   0.00    -0.04  -0.06  -0.00    -0.01   0.01   0.20
  29   1     0.05   0.04   0.03    -0.05  -0.04  -0.03     0.09  -0.19   0.07
  30   1    -0.30  -0.11   0.14     0.32   0.12  -0.15    -0.01   0.01  -0.00
  31   1    -0.28   0.13   0.16     0.29  -0.13  -0.18     0.00  -0.00   0.00
  32   1    -0.35  -0.01  -0.02     0.37   0.01   0.02     0.00  -0.00  -0.01
                     70                     71                     72
                        a                      a                      a 
 Frequencies --  2955.3754              2957.2731              2957.8228
 Red. masses --    99.0000                99.0000                99.0000
 Frc consts  --    99.0000                99.0000                99.0000
 IR Inten    --    99.0000                99.0000                99.0000
 Raman Activ --     0.0000                 0.0000                 0.0000
 Depolar     --     0.0000                 0.0000                 0.0000
 Atom AN      X      Y      Z        X      Y      Z        X      Y      Z
   1   6     0.00   0.00   0.00    -0.00  -0.00  -0.00     0.00   0.00   0.00
   2   6    -0.02  -0.04  -0.05     0.01   0.03   0.04    -0.02  -0.05  -0.08
   3   6     0.03   0.06   0.11    -0.01  -0.03  -0.05     0.03   0.06   0.08
   4   6    -0.02  -0.04  -0.10    -0.01  -0.02  -0.03     0.01   0.02   0.05
   5   6     0.03   0.06   0.06     0.04   0.09   0.14    -0.06  -0.10  -0.10
   6   6     0.03  -0.06   0.06    -0.05   0.10  -0.15    -0.05   0.09  -0.08
   7   6    -0.02   0.04  -0.10     0.01  -0.02   0.04     0.01  -0.02   0.05
   8   6     0.03  -0.06   0.11     0.02  -0.04   0.06     0.03  -0.06   0.07
   9   6    -0.02   0.04  -0.05    -0.01   0.03  -0.05    -0.02   0.05  -0.07
  10   6     0.00  -0.00   0.00     0.00  -0.00   0.00     0.00  -0.00   0.00
  11   1     0.00   0.00  -0.01    -0.00  -0.00   0.01     0.00   0.00  -0.02
  12   1    -0.01  -0.01  -0.00     0.00   0.01   0.00    -0.01  -0.02  -0.01
  13   1     0.00   0.00   0.00    -0.00  -0.00  -0.00     0.00   0.00   0.00
  14   1     0.07   0.15   0.05    -0.05  -0.10  -0.04     0.09   0.19   0.07
  15   1    -0.01  -0.01   0.15     0.01   0.01  -0.12    -0.01  -0.01   0.21
  16   1    -0.12  -0.25  -0.09     0.06   0.12   0.05    -0.11  -0.23  -0.09
  17   1     0.01   0.02  -0.32    -0.00  -0.01   0.14     0.01   0.01  -0.21
  18   1     0.07   0.16   0.05     0.04   0.08   0.03    -0.03  -0.08  -0.02
  19   1    -0.01  -0.01   0.32    -0.00  -0.01   0.10     0.01   0.00  -0.16
  20   1     0.00   0.01  -0.15     0.00  -0.00  -0.44    -0.00  -0.01   0.23
  21   1    -0.11  -0.22  -0.07    -0.16  -0.31  -0.09     0.20   0.39   0.13
  22   1    -0.11   0.23  -0.07     0.18  -0.35   0.10     0.18  -0.36   0.11
  23   1     0.00  -0.00  -0.16    -0.00  -0.01   0.47    -0.00   0.01   0.18
  24   1    -0.01   0.00   0.31     0.00  -0.00  -0.12     0.00   0.00  -0.14
  25   1     0.07  -0.16   0.05    -0.04   0.09  -0.03    -0.03   0.07  -0.02
  26   1    -0.12   0.25  -0.08    -0.07   0.15  -0.05    -0.10   0.21  -0.07
  27   1     0.01  -0.01  -0.32     0.00  -0.00  -0.17     0.01  -0.01  -0.20
  28   1    -0.00   0.01   0.15    -0.00   0.00   0.15    -0.01   0.01   0.19
  29   1     0.07  -0.15   0.05     0.06  -0.12   0.04     0.08  -0.17   0.06
  30   1    -0.01   0.01  -0.00    -0.01   0.01  -0.00    -0.01   0.01  -0.00
  31   1     0.00  -0.00   0.00     0.00  -0.00   0.00     0.00  -0.00   0.00
  32   1     0.00  -0.00  -0.01     0.00  -0.00  -0.01     0.00  -0.00  -0.02
                     73                     74                     75
                        a                      a                      a 
 Frequencies --  2965.5995              2966.2646              3030.9162
 Red. masses --    99.0000                99.0000                99.0000
 Frc consts  --    99.0000                99.0000                99.0000
 IR Inten    --    99.0000                99.0000                99.0000
 Raman Activ --     0.0000                 0.0000                 0.0000
 Depolar     --     0.0000                 0.0000                 0.0000
 Atom AN      X      Y      Z        X      Y      Z        X      Y      Z
   1   6     0.00   0.01   0.01    -0.00  -0.01  -0.01    -0.05  -0.11  -0.18
   2   6    -0.03  -0.07  -0.13     0.03   0.06   0.11    -0.01  -0.02  -0.03
   3   6    -0.01  -0.02  -0.03     0.01   0.03   0.03    -0.00  -0.00  -0.01
   4   6     0.01   0.03   0.13    -0.01  -0.03  -0.09    -0.00  -0.00  -0.00
   5   6     0.02   0.04   0.06    -0.04  -0.07  -0.02    -0.00  -0.00  -0.00
   6   6    -0.01   0.03  -0.05    -0.04   0.08  -0.03    -0.00   0.00  -0.00
   7   6    -0.01   0.03  -0.12    -0.01   0.03  -0.11    -0.00   0.00  -0.00
   8   6     0.00  -0.01   0.03     0.01  -0.03   0.04    -0.00   0.00  -0.01
   9   6     0.03  -0.06   0.11     0.04  -0.08   0.13    -0.01   0.02  -0.03
  10   6    -0.00   0.01  -0.01    -0.00   0.01  -0.01    -0.05   0.10  -0.16
  11   1     0.00   0.00  -0.05    -0.00  -0.00   0.04    -0.03  -0.02   0.50
  12   1    -0.02  -0.03  -0.01     0.02   0.03   0.01     0.21   0.42   0.16
  13   1     0.00   0.00   0.00    -0.00  -0.00  -0.00    -0.01  -0.02  -0.03
  14   1     0.13   0.28   0.10    -0.11  -0.23  -0.09     0.02   0.05   0.02
  15   1    -0.02  -0.02   0.36     0.01   0.01  -0.29    -0.00  -0.00   0.07
  16   1     0.03   0.05   0.02    -0.05  -0.10  -0.04     0.01   0.02   0.01
  17   1    -0.01  -0.00   0.11     0.00   0.00  -0.07    -0.00  -0.00   0.02
  18   1    -0.05  -0.11  -0.03     0.04   0.09   0.03     0.00   0.01   0.00
  19   1     0.01   0.00  -0.46    -0.01  -0.00   0.29    -0.00  -0.00   0.01
  20   1     0.00  -0.00  -0.14    -0.01  -0.01  -0.06     0.00   0.00   0.01
  21   1    -0.08  -0.15  -0.05     0.14   0.28   0.10     0.00   0.00   0.00
  22   1     0.04  -0.08   0.02     0.15  -0.30   0.10     0.00  -0.00   0.00
  23   1     0.00  -0.01   0.15    -0.01   0.01  -0.03     0.00  -0.00   0.01
  24   1    -0.01  -0.01   0.39    -0.01  -0.00   0.37    -0.00  -0.00   0.01
  25   1     0.04  -0.09   0.02     0.05  -0.11   0.03     0.00  -0.01   0.00
  26   1    -0.02   0.03  -0.01    -0.05   0.11  -0.04     0.01  -0.02   0.01
  27   1     0.00   0.00  -0.10     0.00  -0.00  -0.09    -0.00   0.00   0.02
  28   1     0.01  -0.01  -0.30     0.01  -0.01  -0.36    -0.00   0.00   0.06
  29   1    -0.12   0.24  -0.08    -0.14   0.28  -0.10     0.02  -0.05   0.02
  30   1     0.02  -0.03   0.01     0.02  -0.04   0.01     0.19  -0.37   0.13
  31   1    -0.00   0.00  -0.00    -0.00   0.00  -0.00    -0.00   0.02  -0.02
  32   1    -0.00   0.00   0.04    -0.00   0.00   0.04    -0.02   0.01   0.45
                     76                     77                     78
                        a                      a                      a 
 Frequencies --  3030.8713              2972.8200              2974.5696
 Red. masses --    99.0000                99.0000                99.0000
 Frc consts  --    99.0000                99.0000                99.0000
 IR Inten    --    99.0000                99.0000                99.0000
 Raman Activ --     0.0000                 0.0000                 0.0000
 Depolar     --     0.0000                 0.0000                 0.0000
 Atom AN      X      Y      Z        X      Y      Z        X      Y      Z
   1   6     0.04   0.09   0.17    -0.00  -0.01  -0.01     0.00   0.01   0.01
   2   6     0.01   0.01   0.03     0.03   0.07   0.06    -0.03  -0.07  -0.08
   3   6     0.00   0.00   0.01     0.01   0.02   0.10    -0.04  -0.08  -0.09
   4   6     0.00   0.00   0.00    -0.01  -0.01   0.05     0.01   0.01  -0.11
   5   6     0.00   0.00   0.00     0.03   0.04  -0.08    -0.01  -0.02  -0.02
   6   6    -0.00   0.00  -0.00     0.03  -0.05  -0.08     0.01  -0.02   0.02
   7   6    -0.00   0.00  -0.00    -0.01   0.01   0.06    -0.01   0.01   0.11
   8   6    -0.00   0.00  -0.01     0.00  -0.01   0.10     0.03  -0.07   0.09
   9   6    -0.01   0.02  -0.03     0.04  -0.07   0.05     0.04  -0.08   0.07
  10   6    -0.05   0.10  -0.18    -0.00   0.01  -0.01    -0.00   0.01  -0.01
  11   1     0.03   0.02  -0.47    -0.00  -0.00   0.03     0.00   0.00  -0.03
  12   1    -0.18  -0.36  -0.14     0.02   0.03   0.01    -0.02  -0.05  -0.02
  13   1    -0.00   0.03   0.02    -0.00   0.00  -0.00     0.01  -0.00   0.01
  14   1    -0.02  -0.05  -0.02    -0.13  -0.26  -0.11     0.13   0.27   0.11
  15   1     0.00   0.00  -0.06     0.01   0.01  -0.09    -0.01  -0.01   0.16
  16   1    -0.01  -0.02  -0.01    -0.03  -0.06  -0.01     0.15   0.30   0.12
  17   1     0.00   0.00  -0.02     0.01   0.01  -0.32    -0.01  -0.01   0.17
  18   1    -0.01  -0.01  -0.00     0.02   0.05   0.03    -0.02  -0.05  -0.04
  19   1     0.00   0.00  -0.01     0.00  -0.00  -0.22    -0.01   0.00   0.42
  20   1    -0.00   0.00  -0.00     0.01   0.02   0.35     0.00  -0.00   0.05
  21   1    -0.00  -0.00  -0.00    -0.09  -0.18  -0.08     0.04   0.08   0.03
  22   1     0.00  -0.00   0.00    -0.11   0.22  -0.09    -0.04   0.08  -0.02
  23   1     0.00   0.00   0.00     0.01  -0.02   0.37    -0.00   0.00  -0.05
  24   1    -0.00   0.00   0.01     0.00   0.01  -0.23     0.01   0.01  -0.40
  25   1     0.01  -0.01   0.00     0.02  -0.05   0.03     0.02  -0.04   0.03
  26   1     0.01  -0.02   0.01    -0.02   0.03   0.00    -0.13   0.26  -0.10
  27   1     0.00   0.00   0.02     0.01   0.00  -0.35     0.01  -0.01  -0.20
  28   1    -0.00   0.00   0.07     0.01  -0.01  -0.07     0.01  -0.01  -0.13
  29   1     0.02  -0.05   0.02    -0.13   0.27  -0.10    -0.14   0.28  -0.11
  30   1     0.20  -0.40   0.13     0.02  -0.03   0.01     0.02  -0.05   0.02
  31   1     0.01   0.04  -0.02    -0.00  -0.00  -0.00    -0.01  -0.00  -0.01
  32   1    -0.02   0.01   0.53    -0.00   0.00   0.03    -0.00   0.00   0.03
                     79                     80                     81
                        a                      a                      a 
 Frequencies --  2996.8983              2982.4252              2979.7671
 Red. masses --    99.0000                99.0000                99.0000
 Frc consts  --    99.0000                99.0000                99.0000
 IR Inten    --    99.0000                99.0000                99.0000
 Raman Activ --     0.0000                 0.0000                 0.0000
 Depolar     --     0.0000                 0.0000                 0.0000
 Atom AN      X      Y      Z        X      Y      Z        X      Y      Z
   1   6    -0.00  -0.02   0.00    -0.00   0.01  -0.02     0.00  -0.02   0.01
   2   6     0.01   0.03  -0.01    -0.03  -0.06   0.08     0.05   0.09  -0.07
   3   6     0.02   0.04   0.00    -0.02  -0.04   0.08     0.01   0.03  -0.02
   4   6     0.06   0.13   0.01     0.02   0.06   0.05    -0.02  -0.05   0.02
   5   6     0.02   0.04   0.01    -0.00  -0.01   0.03    -0.01  -0.02   0.06
   6   6    -0.02   0.05  -0.00     0.00  -0.01  -0.03    -0.01   0.01   0.06
   7   6    -0.06   0.14  -0.01    -0.02   0.05  -0.05    -0.02   0.05   0.03
   8   6    -0.02   0.04  -0.00     0.02  -0.04  -0.08     0.01  -0.02  -0.02
   9   6    -0.01   0.03   0.01     0.03  -0.06  -0.08     0.04  -0.08  -0.07
  10   6     0.00  -0.02  -0.00     0.00   0.02   0.02     0.00   0.01   0.01
  11   1     0.00  -0.00  -0.01    -0.00   0.00   0.06     0.00  -0.00  -0.04
  12   1     0.02   0.04   0.02    -0.01  -0.02  -0.01     0.02   0.03   0.02
  13   1    -0.01   0.02  -0.01     0.02  -0.03   0.01    -0.02   0.03  -0.01
  14   1    -0.05  -0.11  -0.05     0.10   0.21   0.11    -0.16  -0.34  -0.16
  15   1     0.00   0.00   0.08     0.01  -0.00  -0.38    -0.01   0.01   0.42
  16   1    -0.07  -0.14  -0.06     0.07   0.14   0.07    -0.04  -0.08  -0.04
  17   1     0.00   0.01   0.06     0.01  -0.00  -0.35    -0.00   0.00   0.09
  18   1    -0.23  -0.49  -0.21    -0.10  -0.22  -0.08     0.08   0.18   0.08
  19   1     0.00   0.02   0.17     0.01   0.01  -0.08     0.00  -0.01  -0.16
  20   1     0.00   0.01   0.03    -0.00  -0.01  -0.14    -0.00  -0.01  -0.26
  21   1    -0.08  -0.15  -0.06     0.02   0.04   0.02     0.04   0.08   0.04
  22   1     0.08  -0.15   0.05    -0.02   0.04  -0.02     0.03  -0.06   0.03
  23   1    -0.00   0.01  -0.04     0.00  -0.01   0.12    -0.00   0.01  -0.23
  24   1    -0.01   0.02  -0.17    -0.01   0.00   0.08    -0.00   0.01  -0.16
  25   1     0.24  -0.51   0.20     0.10  -0.21   0.08     0.08  -0.17   0.07
  26   1     0.07  -0.15   0.06    -0.07   0.15  -0.07    -0.04   0.08  -0.04
  27   1    -0.00   0.01  -0.06    -0.00  -0.01   0.34     0.00  -0.00   0.09
  28   1    -0.00   0.01  -0.08    -0.00  -0.01   0.40    -0.00  -0.02   0.39
  29   1     0.06  -0.12   0.05    -0.11   0.23  -0.11    -0.15   0.31  -0.14
  30   1    -0.02   0.04  -0.02     0.01  -0.03   0.01     0.02  -0.03   0.01
  31   1     0.02   0.02   0.01    -0.02  -0.03  -0.01    -0.02  -0.03  -0.01
  32   1    -0.00  -0.00   0.01     0.00   0.00  -0.06     0.00   0.00  -0.04
                     82                     83                     84
                        a                      a                      a 
 Frequencies --  2974.0699              2975.7397              2979.1744
 Red. masses --    99.0000                99.0000                99.0000
 Frc consts  --    99.0000                99.0000                99.0000
 IR Inten    --    99.0000                99.0000                99.0000
 Raman Activ --     0.0000                 0.0000                 0.0000
 Depolar     --     0.0000                 0.0000                 0.0000
 Atom AN      X      Y      Z        X      Y      Z        X      Y      Z
   1   6     0.00   0.00  -0.00     0.00   0.01   0.00     0.00  -0.00   0.00
   2   6     0.02   0.04  -0.03     0.01   0.02  -0.05     0.03   0.06  -0.04
   3   6    -0.04  -0.07   0.06    -0.05  -0.10   0.03    -0.02  -0.04   0.03
   4   6    -0.01  -0.01   0.00     0.01   0.02  -0.04     0.01   0.02   0.00
   5   6     0.04   0.07  -0.05    -0.01  -0.02  -0.01    -0.04  -0.08   0.05
   6   6    -0.03   0.07   0.04    -0.01   0.02  -0.01     0.04  -0.08  -0.06
   7   6     0.01  -0.01   0.00     0.01  -0.02  -0.05    -0.01   0.02  -0.01
   8   6     0.04  -0.08  -0.05    -0.05   0.11   0.03     0.02  -0.03  -0.04
   9   6    -0.02   0.03   0.03     0.01  -0.01  -0.06    -0.03   0.06   0.05
  10   6    -0.00   0.00   0.00     0.00  -0.01   0.00    -0.00  -0.00  -0.00
  11   1     0.00  -0.00   0.00     0.00   0.00  -0.01     0.00  -0.00  -0.01
  12   1     0.00  -0.00   0.00    -0.01  -0.02  -0.01     0.00   0.01   0.00
  13   1    -0.00   0.00  -0.00     0.00  -0.00   0.00    -0.01   0.01  -0.01
  14   1    -0.07  -0.15  -0.07    -0.04  -0.08  -0.04    -0.10  -0.22  -0.10
  15   1    -0.00   0.00   0.18    -0.01  -0.00   0.24    -0.00   0.00   0.26
  16   1     0.13   0.28   0.13     0.19   0.40   0.18     0.07   0.14   0.07
  17   1     0.00  -0.01  -0.35     0.00  -0.01  -0.32     0.00  -0.00  -0.20
  18   1     0.02   0.04   0.02    -0.04  -0.09  -0.04    -0.04  -0.08  -0.03
  19   1    -0.00  -0.00  -0.03    -0.00   0.00   0.20     0.00   0.00   0.03
  20   1     0.01   0.02   0.30    -0.00  -0.00   0.00    -0.01  -0.02  -0.32
  21   1    -0.15  -0.28  -0.11     0.05   0.09   0.03     0.16   0.31   0.12
  22   1     0.14  -0.27   0.10     0.05  -0.10   0.03    -0.16   0.31  -0.12
  23   1    -0.01   0.02  -0.27    -0.00   0.00   0.01     0.01  -0.03   0.35
  24   1     0.00  -0.00   0.01    -0.00  -0.01   0.23    -0.00   0.00  -0.01
  25   1    -0.01   0.03  -0.01    -0.04   0.09  -0.04     0.04  -0.08   0.03
  26   1    -0.14   0.29  -0.13     0.21  -0.43   0.18    -0.07   0.14  -0.06
  27   1     0.00  -0.01   0.32    -0.00   0.02  -0.30    -0.00  -0.01   0.20
  28   1     0.00   0.01  -0.19    -0.00  -0.00   0.25    -0.00   0.01  -0.29
  29   1     0.06  -0.12   0.05    -0.02   0.05  -0.03     0.12  -0.24   0.10
  30   1     0.00  -0.00   0.00    -0.01   0.02  -0.01    -0.01   0.01  -0.00
  31   1    -0.00   0.00   0.00     0.00   0.00   0.00     0.01   0.02   0.01
  32   1    -0.00  -0.00   0.00     0.00  -0.00  -0.01    -0.00  -0.00   0.01
                     85                     86                     87
                        a                      a                      a 
 Frequencies --  2990.3062              3033.1221              3033.0515
 Red. masses --    99.0000                99.0000                99.0000
 Frc consts  --    99.0000                99.0000                99.0000
 IR Inten    --    99.0000                99.0000                99.0000
 Raman Activ --     0.0000                 0.0000                 0.0000
 Depolar     --     0.0000                 0.0000                 0.0000
 Atom AN      X      Y      Z        X      Y      Z        X      Y      Z
   1   6     0.00  -0.02   0.01     0.02  -0.14   0.07     0.03  -0.21   0.11
   2   6     0.02   0.04  -0.04    -0.01  -0.01   0.01    -0.01  -0.02   0.01
   3   6     0.02   0.05  -0.04    -0.00  -0.01   0.00    -0.00  -0.01   0.01
   4   6     0.05   0.10  -0.04    -0.00  -0.00   0.00    -0.00  -0.00   0.00
   5   6     0.01   0.03  -0.05    -0.00  -0.00   0.00    -0.00  -0.00   0.00
   6   6     0.01  -0.02  -0.05     0.00  -0.00  -0.00    -0.00   0.00   0.00
   7   6     0.04  -0.09  -0.04     0.00  -0.00  -0.00    -0.00   0.00   0.00
   8   6     0.02  -0.05  -0.04     0.00  -0.01  -0.01    -0.00   0.01   0.00
   9   6     0.02  -0.04  -0.04     0.01  -0.02  -0.01    -0.00   0.01   0.01
  10   6     0.00   0.02   0.01    -0.02  -0.21  -0.11     0.02   0.14   0.08
  11   1     0.00  -0.00  -0.04     0.01  -0.02  -0.24     0.02  -0.03  -0.38
  12   1     0.02   0.03   0.01     0.13   0.23   0.12     0.18   0.32   0.17
  13   1    -0.02   0.03  -0.01    -0.19   0.29  -0.13    -0.29   0.44  -0.19
  14   1    -0.07  -0.16  -0.08     0.02   0.04   0.02     0.02   0.05   0.03
  15   1    -0.00   0.00   0.20    -0.00  -0.00  -0.04    -0.00  -0.00  -0.06
  16   1    -0.08  -0.16  -0.08     0.01   0.02   0.01     0.01   0.03   0.02
  17   1    -0.00   0.00   0.21    -0.00  -0.00  -0.03    -0.00  -0.00  -0.04
  18   1    -0.16  -0.35  -0.16     0.01   0.01   0.01     0.01   0.01   0.01
  19   1    -0.00   0.02   0.30     0.00  -0.00  -0.01     0.00  -0.00  -0.01
  20   1     0.01   0.01   0.22    -0.00  -0.00  -0.00    -0.00  -0.00  -0.01
  21   1    -0.05  -0.09  -0.04     0.00   0.01   0.00     0.00   0.01   0.00
  22   1    -0.04   0.09  -0.04    -0.00   0.01  -0.00     0.00  -0.00   0.00
  23   1     0.00  -0.01   0.22     0.00  -0.00   0.01    -0.00   0.00  -0.01
  24   1     0.00  -0.02   0.29    -0.00  -0.00   0.01     0.00   0.00  -0.01
  25   1    -0.16   0.34  -0.14    -0.01   0.02  -0.01     0.00  -0.01   0.00
  26   1    -0.08   0.16  -0.07    -0.02   0.04  -0.02     0.01  -0.02   0.01
  27   1    -0.00  -0.01   0.20     0.00  -0.00   0.04    -0.00   0.00  -0.03
  28   1     0.00  -0.01   0.20     0.00  -0.00   0.06    -0.00   0.00  -0.04
  29   1    -0.07   0.15  -0.07    -0.03   0.06  -0.03     0.02  -0.04   0.02
  30   1     0.01  -0.03   0.01    -0.19   0.35  -0.16     0.12  -0.22   0.10
  31   1    -0.02  -0.03  -0.01     0.29   0.43   0.19    -0.20  -0.29  -0.13
  32   1     0.00   0.00  -0.04    -0.01  -0.04   0.35     0.01   0.02  -0.26
                     88                     89                     90
                        a                      a                      a 
 Frequencies --  2984.0957              3038.3398              3038.5646
 Red. masses --    99.0000                99.0000                99.0000
 Frc consts  --    99.0000                99.0000                99.0000
 IR Inten    --    99.0000                99.0000                99.0000
 Raman Activ --     0.0000                 0.0000                 0.0000
 Depolar     --     0.0000                 0.0000                 0.0000
 Atom AN      X      Y      Z        X      Y      Z        X      Y      Z
   1   6     0.00   0.00   0.01     0.11  -0.02  -0.01    -0.10   0.02   0.01
   2   6    -0.01  -0.02  -0.04     0.01   0.00  -0.00    -0.00  -0.00   0.00
   3   6    -0.01  -0.03  -0.07     0.00   0.00  -0.00    -0.00  -0.00   0.00
   4   6    -0.04  -0.10  -0.09    -0.00  -0.00  -0.00    -0.00  -0.00  -0.00
   5   6    -0.00  -0.01  -0.11    -0.00   0.00  -0.00    -0.00  -0.00   0.00
   6   6    -0.00   0.01  -0.11    -0.00   0.00  -0.00     0.00  -0.00  -0.00
   7   6    -0.05   0.10  -0.09    -0.00   0.00  -0.00     0.00  -0.00   0.00
   8   6    -0.01   0.03  -0.07     0.00  -0.00  -0.00     0.00  -0.00  -0.00
   9   6    -0.01   0.02  -0.05     0.00  -0.00  -0.00     0.01  -0.00  -0.00
  10   6     0.00  -0.00   0.01     0.10   0.02  -0.01     0.11   0.02  -0.01
  11   1     0.00   0.00  -0.04    -0.00  -0.01   0.37     0.00   0.01  -0.33
  12   1    -0.01  -0.02  -0.01    -0.14  -0.31  -0.13     0.13   0.29   0.12
  13   1    -0.00   0.01   0.00    -0.25   0.41  -0.18     0.23  -0.37   0.16
  14   1     0.04   0.07   0.03    -0.00  -0.01  -0.00     0.00   0.01   0.00
  15   1    -0.00  -0.00   0.12     0.00   0.00   0.01    -0.00  -0.00  -0.00
  16   1     0.04   0.08   0.03    -0.00  -0.01  -0.00     0.00   0.01   0.00
  17   1    -0.01  -0.01   0.23     0.00   0.00   0.01    -0.00  -0.00  -0.01
  18   1     0.17   0.37   0.14    -0.00   0.00  -0.00     0.00   0.00   0.00
  19   1    -0.01  -0.01   0.17    -0.00   0.00   0.00     0.00  -0.00   0.00
  20   1     0.01   0.01   0.40     0.00   0.00   0.00    -0.00  -0.00  -0.00
  21   1     0.01   0.01  -0.01    -0.00  -0.00  -0.00     0.00   0.01   0.00
  22   1     0.01  -0.02  -0.01     0.00  -0.00   0.00    -0.00   0.01  -0.00
  23   1     0.01  -0.02   0.39    -0.00  -0.00   0.00     0.00  -0.00   0.00
  24   1    -0.01   0.01   0.17    -0.00  -0.00   0.00    -0.00  -0.00  -0.00
  25   1     0.17  -0.37   0.13    -0.00  -0.00  -0.00    -0.00   0.00  -0.00
  26   1     0.04  -0.08   0.02    -0.00   0.01  -0.00    -0.00   0.01  -0.00
  27   1    -0.01  -0.00   0.24     0.00  -0.00   0.01     0.00  -0.00   0.01
  28   1    -0.00   0.00   0.14     0.00  -0.00   0.01     0.00  -0.00   0.01
  29   1     0.03  -0.06   0.02    -0.00   0.01  -0.00    -0.00   0.01  -0.00
  30   1    -0.01   0.02  -0.01    -0.13   0.29  -0.11    -0.15   0.32  -0.12
  31   1    -0.00  -0.01  -0.00    -0.23  -0.37  -0.17    -0.25  -0.40  -0.19
  32   1     0.00  -0.00  -0.04     0.00  -0.00   0.33     0.00  -0.00   0.36
