      -----------------------------------------------------------      
     |                   =====================                   |     
     |                           x T B                           |     
     |                   =====================                   |     
     |                         S. Grimme                         |     
     |          Mulliken Center for Theoretical Chemistry        |     
     |                    University of Bonn                     |     
      -----------------------------------------------------------      

   * xtb version 6.6.1 (8d0f1dd) compiled by 'stahn@M-Bot' on 2023-08-01

   xtb is free software: you can redistribute it and/or modify it under
   the terms of the GNU Lesser General Public License as published by
   the Free Software Foundation, either version 3 of the License, or
   (at your option) any later version.
   
   xtb is distributed in the hope that it will be useful,
   but WITHOUT ANY WARRANTY; without even the implied warranty of
   MERCHANTABILITY or FITNESS FOR A PARTICULAR PURPOSE.  See the
   GNU Lesser General Public License for more details.
   
   Cite this work as:
   * C. Bannwarth, E. Caldeweyher, S. Ehlert, A. Hansen, P. Pracht,
     J. Seibert, S. Spicher, S. Grimme, WIREs Comput. Mol. Sci., 2020, 11,
     e01493. DOI: 10.1002/wcms.1493
   
   for GFN2-xTB:
   * C. Bannwarth, S. Ehlert and S. Grimme., J. Chem. Theory Comput., 2019,
     15, 1652-1671. DOI: 10.1021/acs.jctc.8b01176
   for GFN1-xTB:
   * S. Grimme, C. Bannwarth, P. Shushkov, J. Chem. Theory Comput., 2017,
     13, 1989-2009. DOI: 10.1021/acs.jctc.7b00118
   for GFN0-xTB:
   * P. Pracht, E. Caldeweyher, S. Ehlert, S. Grimme, ChemRxiv, 2019, preprint.
     DOI: 10.26434/chemrxiv.8326202.v1
   for GFN-FF:
   * S. Spicher and S. Grimme, Angew. Chem. Int. Ed., 2020, 59, 15665-15673.
     DOI: 10.1002/anie.202004239
   
   for ALPB and GBSA implicit solvation:
   * S. Ehlert, M. Stahn, S. Spicher, S. Grimme, J. Chem. Theory Comput.,
     2021, 17, 4250-4261. DOI: 10.1021/acs.jctc.1c00471
   
   for DFT-D4:
   * E. Caldeweyher, C. Bannwarth and S. Grimme, J. Chem. Phys., 2017,
     147, 034112. DOI: 10.1063/1.4993215
   * E. Caldeweyher, S. Ehlert, A. Hansen, H. Neugebauer, S. Spicher,
     C. Bannwarth and S. Grimme, J. Chem. Phys., 2019, 150, 154122.
     DOI: 10.1063/1.5090222
   * E. Caldeweyher, J.-M. Mewes, S. Ehlert and S. Grimme, Phys. Chem. Chem. Phys.
     2020, 22, 8499-8512. DOI: 10.1039/D0CP00502A
   
   for sTDA-xTB:
   * S. Grimme and C. Bannwarth, J. Chem. Phys., 2016, 145, 054103.
     DOI: 10.1063/1.4959605
   
   in the mass-spec context:
   * V. Asgeirsson, C. Bauer and S. Grimme, Chem. Sci., 2017, 8, 4879.
     DOI: 10.1039/c7sc00601b
   * J. Koopman and S. Grimme, ACS Omega 2019, 4, 12, 15120-15133.
     DOI: 10.1021/acsomega.9b02011
   
   for metadynamics refer to:
   * S. Grimme, J. Chem. Theory Comput., 2019, 155, 2847-2862
     DOI: 10.1021/acs.jctc.9b00143
   
   for SPH calculations refer to:
   * S. Spicher and S. Grimme, J. Chem. Theory Comput., 2021, 17, 1701-1714
     DOI: 10.1021/acs.jctc.0c01306
   
   with help from (in alphabetical order)
   P. Atkinson, C. Bannwarth, F. Bohle, G. Brandenburg, E. Caldeweyher
   M. Checinski, S. Dohm, S. Ehlert, S. Ehrlich, I. Gerasimov, C. Hölzer
   A. Katbashev, J. Koopman, C. Lavigne, S. Lehtola, F. März, M. Müller,
   F. Musil, H. Neugebauer, J. Pisarek, C. Plett, P. Pracht, F. Pultar,
   J. Seibert, P. Shushkov, S. Spicher, M. Stahn, M. Steiner, T. Strunk,
   J. Stückrath, T. Rose, and J. Unsleber
   
 * started run on 2024/04/20 at 10:58:14.619     

           -------------------------------------------------
          |                Calculation Setup                |
           -------------------------------------------------

          program call               : xtb unfolded.xyz --gfn 2 --ohess -P 4
          coordinate file            : unfolded.xyz
          omp threads                :                     4

   ID    Z sym.   atoms
    1    6 C      1-10
    2    1 H      11-32

           -------------------------------------------------
          |                 G F N 2 - x T B                 |
           -------------------------------------------------

        Reference                      10.1021/acs.jctc.8b01176
      * Hamiltonian:
        H0-scaling (s, p, d)           1.850000    2.230000    2.230000
        zeta-weighting                 0.500000
      * Dispersion:
        s8                             2.700000
        a1                             0.520000
        a2                             5.000000
        s9                             5.000000
      * Repulsion:
        kExp                           1.500000    1.000000
        rExp                           1.000000
      * Coulomb:
        alpha                          2.000000
        third order                    shell-resolved
        anisotropic                    true
        a3                             3.000000
        a5                             4.000000
        cn-shift                       1.200000
        cn-exp                         4.000000
        max-rad                        5.000000


          ...................................................
          :                      SETUP                      :
          :.................................................:
          :  # basis functions                  62          :
          :  # atomic orbitals                  62          :
          :  # shells                           42          :
          :  # electrons                        62          :
          :  max. iterations                   250          :
          :  Hamiltonian                  GFN2-xTB          :
          :  restarted?                      false          :
          :  GBSA solvation                  false          :
          :  PC potential                    false          :
          :  electronic temp.          300.0000000     K    :
          :  accuracy                    1.0000000          :
          :  -> integral cutoff          0.2500000E+02      :
          :  -> integral neglect         0.1000000E-07      :
          :  -> SCF convergence          0.1000000E-05 Eh   :
          :  -> wf. convergence          0.1000000E-03 e    :
          :  Broyden damping             0.4000000          :
          ...................................................

 iter      E             dE          RMSdq      gap      omega  full diag
   1    -33.0383204 -0.330383E+02  0.253E+00   12.49       0.0  T
   2    -33.1239078 -0.855874E-01  0.136E+00   12.32       1.0  T
   3    -33.1249800 -0.107224E-02  0.723E-01   12.31       1.0  T
   4    -33.1252204 -0.240405E-03  0.856E-02   12.34       1.0  T
   5    -33.1252294 -0.902835E-05  0.454E-02   12.34       1.0  T
   6    -33.1252313 -0.190847E-05  0.226E-03   12.34       7.8  T
   7    -33.1252314 -0.470481E-07  0.104E-03   12.34      17.0  T
   8    -33.1252314 -0.241978E-08  0.249E-04   12.34      71.0  T
   9    -33.1252314 -0.125645E-09  0.810E-05   12.34     218.3  T

   *** convergence criteria satisfied after 9 iterations ***

         #    Occupation            Energy/Eh            Energy/eV
      -------------------------------------------------------------
         1        2.0000           -0.6219040             -16.9229
       ...           ...                  ...                  ...
        25        2.0000           -0.4329465             -11.7811
        26        2.0000           -0.4293710             -11.6838
        27        2.0000           -0.4224518             -11.4955
        28        2.0000           -0.4193541             -11.4112
        29        2.0000           -0.4173022             -11.3554
        30        2.0000           -0.4152282             -11.2989
        31        2.0000           -0.4103104             -11.1651 (HOMO)
        32                          0.0432311               1.1764 (LUMO)
        33                          0.0600508               1.6341
        34                          0.1000334               2.7220
        35                          0.1004781               2.7341
        36                          0.1172938               3.1917
       ...                                ...                  ...
        62                          0.3080874               8.3835
      -------------------------------------------------------------
                  HL-Gap            0.4535415 Eh           12.3415 eV
             Fermi-level           -0.1835396 Eh           -4.9944 eV

 SCC (total)                   0 d,  0 h,  0 min,  0.019 sec
 SCC setup                      ...        0 min,  0.000 sec (  1.878%)
 Dispersion                     ...        0 min,  0.000 sec (  1.202%)
 classical contributions        ...        0 min,  0.000 sec (  0.210%)
 integral evaluation            ...        0 min,  0.001 sec (  5.170%)
 iterations                     ...        0 min,  0.011 sec ( 58.934%)
 molecular gradient             ...        0 min,  0.006 sec ( 30.522%)
 printout                       ...        0 min,  0.000 sec (  1.921%)

         :::::::::::::::::::::::::::::::::::::::::::::::::::::
         ::                     SUMMARY                     ::
         :::::::::::::::::::::::::::::::::::::::::::::::::::::
         :: total energy             -32.648466958883 Eh    ::
         :: gradient norm              0.028816550819 Eh/a0 ::
         :: HOMO-LUMO gap             12.341491643553 eV    ::
         ::.................................................::
         :: SCC energy               -33.125231391885 Eh    ::
         :: -> isotropic ES            0.005389001698 Eh    ::
         :: -> anisotropic ES          0.011028533945 Eh    ::
         :: -> anisotropic XC          0.019754352455 Eh    ::
         :: -> dispersion             -0.019584105830 Eh    ::
         :: repulsion energy           0.476866106762 Eh    ::
         :: add. restraining           0.000000000000 Eh    ::
         :: total charge               0.000000000000 e     ::
         :::::::::::::::::::::::::::::::::::::::::::::::::::::

      ----------------------------------------------------------- 
     |                   =====================                   |
     |                        A N C O P T                        |
     |                   =====================                   |
     |               Approximate Normal Coordinate               |
     |                Rational Function Optimizer                |
      ----------------------------------------------------------- 

          ...................................................
          :                      SETUP                      :
          :.................................................:
          :   optimization level            normal          :
          :   max. optcycles                   200          :
          :   ANC micro-cycles                  20          :
          :   degrees of freedom                90          :
          :.................................................:
          :   RF solver                   davidson          :
          :   write xtbopt.log                true          :
          :   linear?                        false          :
          :   energy convergence         0.5000000E-05 Eh   :
          :   grad. convergence          0.1000000E-02 Eh/α :
          :   maxmium RF displ.          2.0000000          :
          :   Hlow (freq-cutoff)         0.2000000E-01      :
          :   Hmax (freq-cutoff)         5.0000000          :
          :   S6 in model hess.         70.0000000          :
          ...................................................

generating ANC from model Hessian ...
Using Lindh-Hessian (1995)
 Shifting diagonal of input Hessian by   1.911270214626502E-002
 Lowest  eigenvalues of input Hessian
    0.000000    0.000000    0.000000    0.000000    0.000000    0.000000
    0.020000    0.021176    0.022187    0.022932    0.023148    0.024680
    0.025153    0.026079    0.026646    0.030230    0.033316    0.033561
 Highest eigenvalues
    1.202447    1.233985    1.250878    1.263240    1.310153    1.331256
 

........................................................................
.............................. CYCLE    1 ..............................
........................................................................

 iter      E             dE          RMSdq      gap      omega  full diag
   1    -33.1252314 -0.331252E+02  0.193E-05   12.34       0.0  T
   2    -33.1252314 -0.172662E-11  0.984E-06   12.34    1795.6  T
   3    -33.1252314 -0.994760E-13  0.437E-06   12.34    4048.3  T
     SCC iter.                  ...        0 min,  0.008 sec
     gradient                   ...        0 min,  0.017 sec
 * total energy  :   -32.6484670 Eh     change       -0.1075762E-10 Eh
   gradient norm :     0.0288162 Eh/α   predicted     0.0000000E+00 (-100.00%)
   displ. norm   :     0.1678293 α      lambda       -0.2713055E-02
   maximum displ.:     0.1146856 α      in ANC's #40, #10, #26, ...

........................................................................
.............................. CYCLE    2 ..............................
........................................................................

 iter      E             dE          RMSdq      gap      omega  full diag
   1    -33.1339684 -0.331340E+02  0.131E-01   12.48       0.0  T
   2    -33.1339725 -0.407176E-05  0.755E-02   12.48       1.0  T
   3    -33.1339732 -0.698622E-06  0.384E-03   12.48       4.6  T
   4    -33.1339732 -0.648122E-07  0.131E-03   12.48      13.5  T
   5    -33.1339732 -0.264669E-08  0.696E-04   12.48      25.4  T
   6    -33.1339732 -0.333728E-09  0.408E-05   12.48     433.0  T
     SCC iter.                  ...        0 min,  0.023 sec
     gradient                   ...        0 min,  0.018 sec
 * total energy  :   -32.6502536 Eh     change       -0.1786609E-02 Eh
   gradient norm :     0.0128334 Eh/α   predicted    -0.1394743E-02 ( -21.93%)
   displ. norm   :     0.0913416 α      lambda       -0.5000277E-03
   maximum displ.:     0.0479130 α      in ANC's #40, #10, #7, ...

........................................................................
.............................. CYCLE    3 ..............................
........................................................................

 iter      E             dE          RMSdq      gap      omega  full diag
   1    -33.1401607 -0.331402E+02  0.628E-02   12.56       0.0  T
   2    -33.1401633 -0.258316E-05  0.354E-02   12.56       1.0  T
   3    -33.1401634 -0.119293E-06  0.393E-03   12.56       4.5  T
   4    -33.1401634 -0.297795E-07  0.673E-04   12.56      26.3  T
   5    -33.1401634 -0.198222E-08  0.374E-04   12.56      47.3  T
     SCC iter.                  ...        0 min,  0.022 sec
     gradient                   ...        0 min,  0.011 sec
 * total energy  :   -32.6505248 Eh     change       -0.2712810E-03 Eh
   gradient norm :     0.0020966 Eh/α   predicted    -0.2521853E-03 (  -7.04%)
   displ. norm   :     0.0242392 α      lambda       -0.1937128E-04
   maximum displ.:     0.0162398 α      in ANC's #10, #7, #1, ...

........................................................................
.............................. CYCLE    4 ..............................
........................................................................

 iter      E             dE          RMSdq      gap      omega  full diag
   1    -33.1411942 -0.331412E+02  0.849E-03   12.57       0.0  T
   2    -33.1411943 -0.841567E-07  0.476E-03   12.57       3.7  T
   3    -33.1411943 -0.249798E-08  0.781E-04   12.57      22.6  T
   4    -33.1411943 -0.681695E-09  0.139E-04   12.57     126.9  T
     SCC iter.                  ...        0 min,  0.023 sec
     gradient                   ...        0 min,  0.046 sec
 * total energy  :   -32.6505388 Eh     change       -0.1396502E-04 Eh
   gradient norm :     0.0006626 Eh/α   predicted    -0.9693745E-05 ( -30.59%)
   displ. norm   :     0.0488208 α      lambda       -0.1323165E-04
   maximum displ.:     0.0324419 α      in ANC's #10, #7, #1, ...

........................................................................
.............................. CYCLE    5 ..............................
........................................................................

 iter      E             dE          RMSdq      gap      omega  full diag
   1    -33.1420640 -0.331421E+02  0.126E-02   12.60       0.0  T
   2    -33.1420640 -0.562115E-07  0.725E-03   12.60       2.4  T
   3    -33.1420640 -0.748631E-08  0.509E-04   12.60      34.7  T
   4    -33.1420640 -0.531884E-09  0.201E-04   12.60      88.0  T
     SCC iter.                  ...        0 min,  0.013 sec
     gradient                   ...        0 min,  0.023 sec
 * total energy  :   -32.6505485 Eh     change       -0.9693139E-05 Eh
   gradient norm :     0.0016099 Eh/α   predicted    -0.6626281E-05 ( -31.64%)
   displ. norm   :     0.0188204 α      lambda       -0.4011846E-05
   maximum displ.:     0.0133299 α      in ANC's #1, #10, #14, ...

........................................................................
.............................. CYCLE    6 ..............................
........................................................................

 iter      E             dE          RMSdq      gap      omega  full diag
   1    -33.1417415 -0.331417E+02  0.307E-03   12.61       0.0  T
   2    -33.1417415 -0.193465E-07  0.180E-03   12.61       9.8  T
   3    -33.1417415 -0.306990E-09  0.387E-04   12.61      45.7  T
   4    -33.1417415 -0.187484E-09  0.571E-05   12.61     309.4  T
     SCC iter.                  ...        0 min,  0.008 sec
     gradient                   ...        0 min,  0.003 sec
 * total energy  :   -32.6505534 Eh     change       -0.4921538E-05 Eh
   gradient norm :     0.0006716 Eh/α   predicted    -0.2008717E-05 ( -59.19%)
   displ. norm   :     0.0583817 α      lambda       -0.7548461E-05
   maximum displ.:     0.0453201 α      in ANC's #1, #10, #3, ...

   *** GEOMETRY OPTIMIZATION CONVERGED AFTER 6 ITERATIONS ***

------------------------------------------------------------------------
 total energy gain   :        -0.0020865 Eh       -1.3093 kcal/mol
 total RMSD          :         0.0530777 a0        0.0281 Å
 total power (kW/mol):        -0.9130041 (step)  -19.4304 (real)
------------------------------------------------------------------------

 ANCopt (total)                0 d,  0 h,  0 min,  0.282 sec
 optimizer setup                ...        0 min,  0.000 sec (  0.126%)
 model hessian                  ...        0 min,  0.011 sec (  3.974%)
 ANC generation                 ...        0 min,  0.007 sec (  2.313%)
 coordinate transformation      ...        0 min,  0.000 sec (  0.050%)
 single point calculation       ...        0 min,  0.249 sec ( 88.154%)
 optimization log               ...        0 min,  0.001 sec (  0.295%)
 hessian update                 ...        0 min,  0.002 sec (  0.858%)
 rational function              ...        0 min,  0.002 sec (  0.806%)

================
 final structure:
================
32
 xtb: 6.6.1 (8d0f1dd)
C            5.27350025569948       -0.84481849113560       -0.13872504377985
C            3.81914580211141       -0.92207323345490        0.30962426641877
C            3.00268918774005        0.26791792120185       -0.18874911281578
C            1.54669387130742        0.18789886713473        0.26348466365780
C            0.72087710103024        1.36354071091364       -0.25371785420880
C           -0.72009776393608        1.36197274299261        0.25857056541772
C           -1.54931390514017        0.19541523245491       -0.27344377266883
C           -3.00091316478607        0.26526336026444        0.19434217601035
C           -3.82292501277929       -0.91278771919857       -0.32286103650264
C           -5.26995038107087       -0.85092481495726        0.15090780174521
H            5.33700618070814       -0.83081428287833       -1.22466326812488
H            5.74213594232224        0.05992382305369        0.24236657848944
H            5.83349693554678       -1.70225368262803        0.22719324528935
H            3.37294414487792       -1.84603807492446       -0.06556546904523
H            3.77694685609964       -0.95502814527216        1.40077244289257
H            3.44877093986847        1.19363113435853        0.18269795826266
H            3.04003133725497        0.29933174701194       -1.28034618885627
H            1.11940584213813       -0.74969577495831       -0.09574720943914
H            1.50864588461138        0.17390101731052        1.35543741233263
H            0.71507147189695        1.34798697810763       -1.34617961909980
H            1.20217082992129        2.29357179430897        0.05926196773034
H           -1.19924814900874        2.29732084751954       -0.04157391683973
H           -0.71378790054051        1.33175158674670        1.35074897251131
H           -1.52134953428562        0.20211315001259       -1.36575822970585
H           -1.11775724068392       -0.74826276266361        0.06405158376674
H           -3.45027177616894        1.19939700487822       -0.15115987136837
H           -3.02741161141943        0.27149488479259        1.28670294311098
H           -3.79820378478724       -0.91639620508550       -1.41501798728587
H           -3.36905514474422       -1.84546238071136        0.02024224033039
H           -5.74635991883324        0.06282678420005       -0.19765238911961
H           -5.83436176033264       -1.69933504605646       -0.22898660505073
H           -5.31566553461755       -0.86661597333858        1.23772075594511
           -------------------------------------------------
          |                Final Singlepoint                |
           -------------------------------------------------

          ...................................................
          :                      SETUP                      :
          :.................................................:
          :  # basis functions                  62          :
          :  # atomic orbitals                  62          :
          :  # shells                           42          :
          :  # electrons                        62          :
          :  max. iterations                   250          :
          :  Hamiltonian                  GFN2-xTB          :
          :  restarted?                      false          :
          :  GBSA solvation                  false          :
          :  PC potential                    false          :
          :  electronic temp.          300.0000000     K    :
          :  accuracy                    1.0000000          :
          :  -> integral cutoff          0.2500000E+02      :
          :  -> integral neglect         0.1000000E-07      :
          :  -> SCF convergence          0.1000000E-05 Eh   :
          :  -> wf. convergence          0.1000000E-03 e    :
          :  Broyden damping             0.4000000          :
          ...................................................

 iter      E             dE          RMSdq      gap      omega  full diag
   1    -33.1417415 -0.331417E+02  0.290E-05   12.61       0.0  T
   2    -33.1417415 -0.476064E-12  0.165E-05   12.61    1072.8  T
   3    -33.1417415 -0.852651E-13  0.192E-06   12.61    9217.4  T

   *** convergence criteria satisfied after 3 iterations ***

         #    Occupation            Energy/Eh            Energy/eV
      -------------------------------------------------------------
         1        2.0000           -0.6228789             -16.9494
       ...           ...                  ...                  ...
        25        2.0000           -0.4320313             -11.7562
        26        2.0000           -0.4298657             -11.6972
        27        2.0000           -0.4231414             -11.5143
        28        2.0000           -0.4196516             -11.4193
        29        2.0000           -0.4184454             -11.3865
        30        2.0000           -0.4139839             -11.2651
        31        2.0000           -0.4116305             -11.2010 (HOMO)
        32                          0.0516917               1.4066 (LUMO)
        33                          0.0682606               1.8575
        34                          0.1101087               2.9962
        35                          0.1114185               3.0319
        36                          0.1183519               3.2205
       ...                                ...                  ...
        62                          0.3252596               8.8508
      -------------------------------------------------------------
                  HL-Gap            0.4633221 Eh           12.6076 eV
             Fermi-level           -0.1799694 Eh           -4.8972 eV

 SCC (total)                   0 d,  0 h,  0 min,  0.010 sec
 SCC setup                      ...        0 min,  0.001 sec (  6.714%)
 Dispersion                     ...        0 min,  0.000 sec (  1.368%)
 classical contributions        ...        0 min,  0.000 sec (  0.257%)
 integral evaluation            ...        0 min,  0.001 sec (  9.775%)
 iterations                     ...        0 min,  0.004 sec ( 36.107%)
 molecular gradient             ...        0 min,  0.003 sec ( 31.222%)
 printout                       ...        0 min,  0.001 sec ( 14.219%)

         :::::::::::::::::::::::::::::::::::::::::::::::::::::
         ::                     SUMMARY                     ::
         :::::::::::::::::::::::::::::::::::::::::::::::::::::
         :: total energy             -32.650553428374 Eh    ::
         :: gradient norm              0.000671801787 Eh/a0 ::
         :: HOMO-LUMO gap             12.607636396306 eV    ::
         ::.................................................::
         :: SCC energy               -33.141741486021 Eh    ::
         :: -> isotropic ES            0.005762758108 Eh    ::
         :: -> anisotropic ES          0.010581018279 Eh    ::
         :: -> anisotropic XC          0.020038411041 Eh    ::
         :: -> dispersion             -0.019654311670 Eh    ::
         :: repulsion energy           0.491291986037 Eh    ::
         :: add. restraining           0.000000000000 Eh    ::
         :: total charge               0.000000000000 e     ::
         :::::::::::::::::::::::::::::::::::::::::::::::::::::

           ------------------------------------------------- 
          |                Numerical Hessian                |
           ------------------------------------------------- 
step length          :   0.00500
SCC accuracy         :   0.30000
Hessian scale factor :   1.00000
frozen atoms in %    :   0.00000    0
RMS gradient         :   0.00067
estimated CPU  time      0.20 min
estimated wall time      0.05 min

writing file <hessian>.

 projected vibrational frequencies (cm⁻¹)
eigval :       -0.00    -0.00    -0.00     0.00     0.00     0.00
eigval :       35.82    37.10    43.20    93.24    96.94   116.66
eigval :      119.68   142.21   169.05   231.67   232.50   243.43
eigval :      328.89   335.53   402.81   442.04   523.22   765.32
eigval :      772.26   785.49   800.13   854.62   879.44   937.47
eigval :      942.57   954.62   961.08  1003.32  1025.54  1076.62
eigval :     1076.98  1096.19  1101.33  1112.78  1120.37  1132.46
eigval :     1144.65  1177.21  1211.39  1221.26  1252.56  1254.11
eigval :     1265.60  1274.89  1280.94  1288.44  1292.12  1297.44
eigval :     1322.43  1326.59  1366.65  1368.06  1378.17  1380.96
eigval :     1415.76  1415.78  1491.22  1491.61  1496.16  1497.09
eigval :     1499.15  1500.27  1501.23  1504.30  1504.58  1504.59
eigval :     1507.86  1507.91  2955.38  2956.15  2957.27  2957.82
eigval :     2965.60  2966.26  2972.82  2974.07  2974.57  2975.74
eigval :     2979.17  2979.77  2982.43  2984.10  2990.31  2996.90
eigval :     3030.87  3030.92  3033.05  3033.12  3038.34  3038.56
           -------------------------------------------------
          |                Property Printout                |
           -------------------------------------------------

    * Orbital Energies and Occupations

         #    Occupation            Energy/Eh            Energy/eV
      -------------------------------------------------------------
         1        2.0000           -0.6228789             -16.9494
       ...           ...                  ...                  ...
        19        2.0000           -0.4659503             -12.6792
        20        2.0000           -0.4604113             -12.5284
        21        2.0000           -0.4573836             -12.4460
        22        2.0000           -0.4442649             -12.0891
        23        2.0000           -0.4424419             -12.0395
        24        2.0000           -0.4337506             -11.8030
        25        2.0000           -0.4320313             -11.7562
        26        2.0000           -0.4298657             -11.6972
        27        2.0000           -0.4231414             -11.5143
        28        2.0000           -0.4196516             -11.4193
        29        2.0000           -0.4184454             -11.3865
        30        2.0000           -0.4139839             -11.2651
        31        2.0000           -0.4116305             -11.2010 (HOMO)
        32                          0.0516917               1.4066 (LUMO)
        33                          0.0682606               1.8575
        34                          0.1101087               2.9962
        35                          0.1114185               3.0319
        36                          0.1183519               3.2205
        37                          0.1238568               3.3703
        38                          0.1336244               3.6361
        39                          0.1428803               3.8880
        40                          0.1491008               4.0572
        41                          0.1502903               4.0896
        42                          0.1585537               4.3145
       ...                                ...                  ...
        62                          0.3252596               8.8508
      -------------------------------------------------------------
                  HL-Gap            0.4633221 Eh           12.6076 eV
             Fermi-level           -0.1799694 Eh           -4.8972 eV

     #   Z          covCN         q      C6AA      α(0)
     1   6 C        3.752    -0.102    22.510     6.766
     2   6 C        3.801    -0.053    21.521     6.605
     3   6 C        3.803    -0.059    21.635     6.622
     4   6 C        3.803    -0.059    21.632     6.622
     5   6 C        3.802    -0.058    21.615     6.619
     6   6 C        3.802    -0.058    21.615     6.619
     7   6 C        3.803    -0.059    21.632     6.622
     8   6 C        3.803    -0.059    21.635     6.622
     9   6 C        3.801    -0.053    21.521     6.605
    10   6 C        3.752    -0.102    22.510     6.766
    11   1 H        0.925     0.033     2.542     2.494
    12   1 H        0.925     0.033     2.543     2.494
    13   1 H        0.925     0.032     2.552     2.498
    14   1 H        0.924     0.028     2.612     2.527
    15   1 H        0.924     0.028     2.610     2.526
    16   1 H        0.924     0.029     2.604     2.524
    17   1 H        0.924     0.029     2.599     2.521
    18   1 H        0.924     0.031     2.575     2.509
    19   1 H        0.924     0.029     2.602     2.523
    20   1 H        0.924     0.029     2.596     2.520
    21   1 H        0.924     0.028     2.609     2.526
    22   1 H        0.924     0.028     2.610     2.526
    23   1 H        0.924     0.029     2.596     2.520
    24   1 H        0.924     0.029     2.603     2.523
    25   1 H        0.924     0.031     2.573     2.509
    26   1 H        0.924     0.029     2.605     2.524
    27   1 H        0.924     0.029     2.598     2.521
    28   1 H        0.924     0.028     2.610     2.526
    29   1 H        0.924     0.028     2.612     2.527
    30   1 H        0.925     0.033     2.543     2.494
    31   1 H        0.925     0.032     2.552     2.498
    32   1 H        0.925     0.033     2.542     2.494

 Mol. C6AA /au·bohr⁶  :       6710.673154
 Mol. C8AA /au·bohr⁸  :     139472.744895
 Mol. α(0) /au        :        121.789366


Wiberg/Mayer (AO) data.
largest (>0.10) Wiberg bond orders for each atom

 ---------------------------------------------------------------------------
     #   Z sym  total        # sym  WBO       # sym  WBO       # sym  WBO
 ---------------------------------------------------------------------------
     1   6 C    3.997 --     2 C    1.019    12 H    0.988    11 H    0.988
                            13 H    0.988
     2   6 C    3.998 --     1 C    1.019     3 C    1.008    15 H    0.979
                            14 H    0.979
     3   6 C    3.997 --     2 C    1.008     4 C    1.007    17 H    0.978
                            16 H    0.978
     4   6 C    3.998 --     5 C    1.008     3 C    1.007    19 H    0.977
                            18 H    0.975
     5   6 C    3.997 --     4 C    1.008     6 C    1.006    20 H    0.977
                            21 H    0.977
     6   6 C    3.997 --     7 C    1.008     5 C    1.006    23 H    0.977
                            22 H    0.977
     7   6 C    3.998 --     6 C    1.008     8 C    1.007    24 H    0.977
                            25 H    0.975
     8   6 C    3.997 --     9 C    1.008     7 C    1.007    27 H    0.978
                            26 H    0.978
     9   6 C    3.998 --    10 C    1.019     8 C    1.008    28 H    0.979
                            29 H    0.979
    10   6 C    3.997 --     9 C    1.019    30 H    0.988    32 H    0.988
                            31 H    0.988
    11   1 H    0.999 --     1 C    0.988
    12   1 H    0.999 --     1 C    0.988
    13   1 H    0.999 --     1 C    0.988
    14   1 H    0.999 --     2 C    0.979
    15   1 H    0.999 --     2 C    0.979
    16   1 H    0.999 --     3 C    0.978
    17   1 H    0.999 --     3 C    0.978
    18   1 H    0.999 --     4 C    0.975
    19   1 H    0.999 --     4 C    0.977
    20   1 H    0.999 --     5 C    0.977
    21   1 H    0.999 --     5 C    0.977
    22   1 H    0.999 --     6 C    0.977
    23   1 H    0.999 --     6 C    0.977
    24   1 H    0.999 --     7 C    0.977
    25   1 H    0.999 --     7 C    0.975
    26   1 H    0.999 --     8 C    0.978
    27   1 H    0.999 --     8 C    0.978
    28   1 H    0.999 --     9 C    0.979
    29   1 H    0.999 --     9 C    0.979
    30   1 H    0.999 --    10 C    0.988
    31   1 H    0.999 --    10 C    0.988
    32   1 H    0.999 --    10 C    0.988
 ---------------------------------------------------------------------------

Topologies differ in total number of bonds
Writing topology from bond orders to xtbtopo.mol

molecular dipole:
                 x           y           z       tot (Debye)
 q only:        0.000      -0.005       0.000
   full:        0.000      -0.003       0.000       0.007
molecular quadrupole (traceless):
                xx          xy          yy          xz          yz          zz
 q only:        0.466       0.005      -0.109      -0.187       0.002      -0.358
  q+dip:       -2.413      -0.013       0.508       0.662      -0.008       1.906
   full:       -1.003      -0.005       0.195       0.266      -0.004       0.808

           -------------------------------------------------
          |                Geometry Summary                 |
           -------------------------------------------------

      molecular mass/u    :      142.2820555
   center of mass at/Å    :       -0.0000025      -0.0007023       0.0000551
  moments of inertia/u·Å² :        0.1442589E+03   0.1627711E+04   0.1721667E+04
rotational constants/cm⁻¹ :        0.1168568E+00   0.1035665E-01   0.9791459E-02

 * 31 selected distances

     #   Z          #   Z                                           value/Å
     1   6 C        2   6 C                                       1.5238546
     2   6 C        3   6 C                                       1.5267799
     3   6 C        4   6 C                                       1.5267093
     4   6 C        5   6 C                                       1.5269597
     5   6 C        6   6 C                                       1.5293302 (max)
     6   6 C        7   6 C                                       1.5269235
     7   6 C        8   6 C                                       1.5267100
     8   6 C        9   6 C                                       1.5267637
     9   6 C       10   6 C                                       1.5238657
     1   6 C       11   1 H                                       1.0878838
     1   6 C       12   1 H                                       1.0878461
     1   6 C       13   1 H                                       1.0875145
     2   6 C       14   1 H                                       1.0925084
     2   6 C       15   1 H                                       1.0924611
     3   6 C       16   1 H                                       1.0926605
     3   6 C       17   1 H                                       1.0926874
     4   6 C       18   1 H                                       1.0911950
     4   6 C       19   1 H                                       1.0927052
     5   6 C       20   1 H                                       1.0925880
     5   6 C       21   1 H                                       1.0929584
     6   6 C       22   1 H                                       1.0929538
     6   6 C       23   1 H                                       1.0926148
     7   6 C       24   1 H                                       1.0926930
     7   6 C       25   1 H                                       1.0911795
     8   6 C       26   1 H                                       1.0926576
     8   6 C       27   1 H                                       1.0927000
     9   6 C       28   1 H                                       1.0924428
     9   6 C       29   1 H                                       1.0925200
    10   6 C       30   1 H                                       1.0878430
    10   6 C       31   1 H                                       1.0875110 (min)
    10   6 C       32   1 H                                       1.0878873

 * 2 distinct bonds (by element types)

   Z      Z             #   av. dist./Å        max./Å        min./Å
   1 H    6 C          22     1.0911823     1.0929584     1.0875110
   6 C    6 C           9     1.5264330     1.5293302     1.5238546

           -------------------------------------------------
          |               Frequency Printout                |
           -------------------------------------------------
 projected vibrational frequencies (cm⁻¹)
eigval :       -0.00    -0.00    -0.00     0.00     0.00     0.00
eigval :       35.82    37.10    43.20    93.24    96.94   116.66
eigval :      119.68   142.21   169.05   231.67   232.50   243.43
eigval :      328.89   335.53   402.81   442.04   523.22   765.32
eigval :      772.26   785.49   800.13   854.62   879.44   937.47
eigval :      942.57   954.62   961.08  1003.32  1025.54  1076.62
eigval :     1076.98  1096.19  1101.33  1112.78  1120.37  1132.46
eigval :     1144.65  1177.21  1211.39  1221.26  1252.56  1254.11
eigval :     1265.60  1274.89  1280.94  1288.44  1292.12  1297.44
eigval :     1322.43  1326.59  1366.65  1368.06  1378.17  1380.96
eigval :     1415.76  1415.78  1491.22  1491.61  1496.16  1497.09
eigval :     1499.15  1500.27  1501.23  1504.30  1504.58  1504.59
eigval :     1507.86  1507.91  2955.38  2956.15  2957.27  2957.82
eigval :     2965.60  2966.26  2972.82  2974.07  2974.57  2975.74
eigval :     2979.17  2979.77  2982.43  2984.10  2990.31  2996.90
eigval :     3030.87  3030.92  3033.05  3033.12  3038.34  3038.56
 reduced masses (amu)
   1:  9.52   2:  9.89   3: 10.16   4:  9.22   5:  9.82   6: 10.06   7:  6.78   8:  6.12
   9:  8.52  10:  8.76  11:  7.13  12:  6.88  13:  6.40  14:  8.73  15:  8.50  16:  2.88
  17:  2.13  18:  7.13  19:  8.61  20:  9.10  21:  9.53  22:  8.91  23:  8.47  24:  1.90
  25:  1.72  26:  2.38  27:  2.35  28:  3.17  29:  3.31  30:  6.58  31:  5.36  32:  3.83
  33:  5.74  34:  4.37  35:  4.12  36: 10.25  37:  7.92  38:  7.98  39:  7.95  40:  7.90
  41:  6.93  42:  7.93  43:  8.36  44:  7.00  45:  5.70  46:  4.94  47:  3.58  48:  3.73
  49:  3.40  50:  2.73  51:  1.60  52:  2.14  53:  2.43  54:  2.27  55:  3.74  56:  3.69
  57:  4.57  58:  4.87  59:  5.62  60:  5.58  61:  3.19  62:  3.19  63:  1.91  64:  1.91
  65:  1.97  66:  1.87  67:  1.95  68:  1.99  69:  1.84  70:  1.82  71:  1.53  72:  1.53
  73:  1.66  74:  1.65  75:  1.89  76:  1.89  77:  1.94  78:  1.93  79:  1.94  80:  1.89
  81:  1.69  82:  1.47  83:  1.88  84:  1.50  85:  1.46  86:  1.51  87:  1.59  88:  1.92
  89:  1.54  90:  1.63  91:  1.96  92:  1.96  93:  1.93  94:  1.93  95:  1.26  96:  1.26
 IR intensities (km·mol⁻¹)
   1:  0.00   2:  0.00   3:  0.00   4:  0.00   5:  0.00   6:  0.00   7:  0.01   8:  0.00
   9:  0.01  10:  0.02  11:  0.00  12:  0.00  13:  0.00  14:  0.18  15:  0.06  16:  0.00
  17:  0.00  18:  0.00  19:  0.03  20:  0.01  21:  0.16  22:  0.11  23:  0.75  24: 14.89
  25:  6.18  26:  1.99  27:  0.00  28:  3.42  29:  1.65  30:  3.58  31:  3.26  32:  1.06
  33:  0.96  34:  0.11  35:  0.10  36:  0.00  37:  1.65  38:  0.71  39:  1.53  40:  1.79
  41:  1.68  42:  1.47  43:  0.55  44:  0.02  45:  0.41  46:  0.08  47:  0.11  48:  0.14
  49:  0.36  50:  0.51  51:  0.24  52:  0.15  53:  0.24  54:  0.38  55:  0.16  56:  0.03
  57:  3.33  58:  0.31  59:  0.35  60:  0.00  61:  0.00  62:  1.85  63:  0.50  64:  0.02
  65:  0.00  66:  0.10  67:  0.60  68:  0.04  69:  0.00  70:  0.02  71:  3.39  72:  1.33
  73:  1.64  74:  0.74  75:  3.04  76:  2.20  77:  8.68  78:  7.25  79:  1.00  80:  2.24
  81: 35.78  82:  3.57  83: 53.96  84: 20.57  85:  8.74  86:  1.22  87: 16.45  88:220.36
  89:127.48  90:163.95  91: 26.78  92: 92.30  93: 34.77  94: 92.66  95: 64.41  96:  1.18
 Raman intensities (amu)
   1:  0.00   2:  0.00   3:  0.00   4:  0.00   5:  0.00   6:  0.00   7:  0.00   8:  0.00
   9:  0.00  10:  0.00  11:  0.00  12:  0.00  13:  0.00  14:  0.00  15:  0.00  16:  0.00
  17:  0.00  18:  0.00  19:  0.00  20:  0.00  21:  0.00  22:  0.00  23:  0.00  24:  0.00
  25:  0.00  26:  0.00  27:  0.00  28:  0.00  29:  0.00  30:  0.00  31:  0.00  32:  0.00
  33:  0.00  34:  0.00  35:  0.00  36:  0.00  37:  0.00  38:  0.00  39:  0.00  40:  0.00
  41:  0.00  42:  0.00  43:  0.00  44:  0.00  45:  0.00  46:  0.00  47:  0.00  48:  0.00
  49:  0.00  50:  0.00  51:  0.00  52:  0.00  53:  0.00  54:  0.00  55:  0.00  56:  0.00
  57:  0.00  58:  0.00  59:  0.00  60:  0.00  61:  0.00  62:  0.00  63:  0.00  64:  0.00
  65:  0.00  66:  0.00  67:  0.00  68:  0.00  69:  0.00  70:  0.00  71:  0.00  72:  0.00
  73:  0.00  74:  0.00  75:  0.00  76:  0.00  77:  0.00  78:  0.00  79:  0.00  80:  0.00
  81:  0.00  82:  0.00  83:  0.00  84:  0.00  85:  0.00  86:  0.00  87:  0.00  88:  0.00
  89:  0.00  90:  0.00  91:  0.00  92:  0.00  93:  0.00  94:  0.00  95:  0.00  96:  0.00
 output can be read by thermo (or use thermo option).
 writing <g98.out> molden fake output.
 recommended (thermochemical) frequency scaling factor: 1.0
           -------------------------------------------------
          |             Thermodynamic Functions             |
           -------------------------------------------------

Molecule has the following symmetry elements: (C2) 
It seems to be the C2 point group
c2  symmetry found (for desy threshold:  0.10E+00) used in thermo

          ...................................................
          :                      SETUP                      :
          :.................................................:
          :  # frequencies                          90      :
          :  # imaginary freq.                       0      :
          :  linear?                             false      :
          :  only rotor calc.                    false      :
          :  symmetry                               c2      :
          :  rotational number                       2      :
          :  scaling factor                  1.0000000      :
          :  rotor cutoff                   50.0000000 cm⁻¹ :
          :  imag. cutoff                  -20.0000000 cm⁻¹ :
          :.................................................:

    mode    ω/cm⁻¹     T·S(HO)/kcal·mol⁻¹    T·S(FR)/kcal·mol⁻¹   T·S(vib)
   ------------------------------------------------------------------------
       1     35.82    -1.63317 ( 20.85%)    -1.15522 ( 79.15%)    -1.25488
       2     37.10    -1.61245 ( 23.26%)    -1.14483 ( 76.74%)    -1.25361
       3     43.20    -1.52250 ( 35.79%)    -1.09973 ( 64.21%)    -1.25105
       4     93.24    -1.07061 ( 92.36%)    -0.87189 (  7.64%)    -1.05543
       5     96.94    -1.04794 ( 93.39%)    -0.86036 (  6.61%)    -1.03555
       6    116.66    -0.94066 ( 96.74%)    -0.80553 (  3.26%)    -0.93625
       7    119.68    -0.92590 ( 97.04%)    -0.79795 (  2.96%)    -0.92212
       8    142.21    -0.82704 ( 98.49%)    -0.74686 (  1.51%)    -0.82584
       9    169.05    -0.72927 ( 99.24%)    -0.69565 (  0.76%)    -0.72901
      10    231.67    -0.55634 ( 99.78%)    -0.60231 (  0.22%)    -0.55644
      11    232.50    -0.55443 ( 99.79%)    -0.60125 (  0.21%)    -0.55453
      12    243.43    -0.53002 ( 99.82%)    -0.58764 (  0.18%)    -0.53012
   ------------------------------------------------------------------------

   temp. (K)  partition function   enthalpy   heat capacity  entropy
                                   cal/mol     cal/K/mol   cal/K/mol   J/K/mol
 298.15  VIB  0.270E+06             6889.370     39.958     44.456
         ROT  0.768E+06              888.752      2.981     29.911
         INT  0.208E+12             7778.122     42.939     74.367
         TR   0.164E+28             1481.254      4.968     40.751
         TOT                        9259.3763    47.9067   115.1181   481.6542

       T/K    H(0)-H(T)+PV         H(T)/Eh          T*S/Eh         G(T)/Eh
   ------------------------------------------------------------------------
    298.15    0.147558E-01    0.314806E+00    0.546963E-01    0.260110E+00
   ------------------------------------------------------------------------

         :::::::::::::::::::::::::::::::::::::::::::::::::::::
         ::                  THERMODYNAMIC                  ::
         :::::::::::::::::::::::::::::::::::::::::::::::::::::
         :: total free energy         -32.390443766026 Eh   ::
         ::.................................................::
         :: total energy              -32.650553428374 Eh   ::
         :: zero point energy           0.300050234482 Eh   ::
         :: G(RRHO) w/o ZPVE           -0.039940572134 Eh   ::
         :: G(RRHO) contrib.            0.260109662348 Eh   ::
         :::::::::::::::::::::::::::::::::::::::::::::::::::::
 
 normal mode %tage of torsion character
   1:  0.00   2:  0.00   3:  0.00   4:  0.00   5:  0.00   6:  0.00   7:  0.50   8:  0.56
   9:  0.44  10:  0.40  11:  0.63  12:  0.61  13:  0.68  14:  0.39  15:  0.52  16:  0.84
  17:  0.89  18:  0.61  19:  0.19  20:  0.16  21:  0.05  22:  0.08  23:  0.08  24:  0.51
  25:  0.53  26:  0.47  27:  0.49  28:  0.56  29:  0.50  30:  0.13  31:  0.16  32:  0.46
  33:  0.27  34:  0.29  35:  0.27  36:  0.04  37:  0.14  38:  0.10  39:  0.08  40:  0.08
  41:  0.10  42:  0.04  43:  0.11  44:  0.46  45:  0.53  46:  0.44  47:  0.23  48:  0.25
  49:  0.17  50:  0.17  51:  0.10  52:  0.13  53:  0.18  54:  0.11  55:  0.07  56:  0.08
  57:  0.07  58:  0.07  59:  0.06  60:  0.06  61:  0.00  62:  0.00  63:  0.64  64:  0.63
  65:  0.64  66:  0.65  67:  0.65  68:  0.63  69:  0.59  70:  0.59  71:  0.92  72:  0.93
  73:  0.84  74:  0.85  75:  0.36  76:  0.39  77:  0.30  78:  0.29  79:  0.19  80:  0.14
  81:  0.02  82:  0.01  83:  0.02  84:  0.01  85:  0.01  86:  0.01  87:  0.02  88:  0.01
  89:  0.01  90:  0.03  91:  0.07  92:  0.07  93:  0.03  94:  0.04  95:  0.00  96:  0.00
 recommended # of modes for mode following           4

optimized geometry written to: xtbopt.xyz


           -------------------------------------------------
          | TOTAL ENERGY              -32.650553428374 Eh   |
          | TOTAL ENTHALPY            -32.335747438573 Eh   |
          | TOTAL FREE ENERGY         -32.390443766026 Eh   |
          | GRADIENT NORM               0.000671800985 Eh/α |
          | HOMO-LUMO GAP              12.607636337980 eV   |
           -------------------------------------------------

------------------------------------------------------------------------
 * finished run on 2024/04/20 at 10:58:16.091     
------------------------------------------------------------------------
 total:
 * wall-time:     0 d,  0 h,  0 min,  1.471 sec
 *  cpu-time:     0 d,  0 h,  0 min,  3.908 sec
 * ratio c/w:     2.656 speedup
 SCF:
 * wall-time:     0 d,  0 h,  0 min,  0.019 sec
 *  cpu-time:     0 d,  0 h,  0 min,  0.064 sec
 * ratio c/w:     3.302 speedup
 ANC optimizer:
 * wall-time:     0 d,  0 h,  0 min,  0.297 sec
 *  cpu-time:     0 d,  0 h,  0 min,  0.482 sec
 * ratio c/w:     1.623 speedup
 analytical hessian:
 * wall-time:     0 d,  0 h,  0 min,  1.094 sec
 *  cpu-time:     0 d,  0 h,  0 min,  3.217 sec
 * ratio c/w:     2.940 speedup

