32
 energy: -32.648466958894 gnorm: 0.028816232967 xtb: 6.6.1 (8d0f1dd)
C            5.28773500000000       -0.86190500000000       -0.13481300000000
C            3.83363300000000       -0.93003800000000        0.30518100000000
C            3.00958100000000        0.25960000000000       -0.18959300000000
C            1.54905600000000        0.20316600000000        0.25904100000000
C            0.72389800000000        1.38638000000000       -0.24851800000000
C           -0.72312300000000        1.38481000000000        0.25261800000000
C           -1.55154800000000        0.21011700000000       -0.26900000000000
C           -3.00760400000000        0.25674100000000        0.19500100000000
C           -3.83782300000000       -0.92030400000000       -0.31918600000000
C           -5.28406700000000       -0.86808900000000        0.14798600000000
H            5.37075000000000       -0.84445700000000       -1.22372100000000
H            5.77169700000000        0.04324800000000        0.23865100000000
H            5.86693800000000       -1.71601900000000        0.22494000000000
H            3.37385200000000       -1.86256200000000       -0.04949900000000
H            3.77185700000000       -0.98339900000000        1.40069200000000
H            3.46640100000000        1.19450000000000        0.15878500000000
H            3.05720100000000        0.31086200000000       -1.28466800000000
H            1.10172300000000       -0.73902300000000       -0.07966600000000
H            1.50138200000000        0.16398000000000        1.35456800000000
H            0.73273300000000        1.39346200000000       -1.34561900000000
H            1.22127700000000        2.31994400000000        0.04682300000000
H           -1.21853000000000        2.32321500000000       -0.03028700000000
H           -0.73120400000000        1.37753900000000        1.34970800000000
H           -1.51423400000000        0.19105800000000       -1.36536700000000
H           -1.10020500000000       -0.73748700000000        0.04825100000000
H           -3.46716000000000        1.19997200000000       -0.12608900000000
H           -3.04398600000000        0.28185500000000        1.29140000000000
H           -3.79489100000000       -0.94257800000000       -1.41670500000000
H           -3.37033200000000       -1.86141600000000        0.00124200000000
H           -5.77647400000000        0.04544700000000       -0.19215400000000
H           -5.86770500000000       -1.71378700000000       -0.22419200000000
H           -5.34796800000000       -0.88007900000000        1.23816800000000
32
 energy: -32.650253567622 gnorm: 0.012833414500 xtb: 6.6.1 (8d0f1dd)
C            5.27945998665666       -0.85527789046187       -0.13632559444841
C            3.82607680994758       -0.92694464102931        0.30629519382808
C            3.00769913200000        0.26412941613784       -0.19094582848875
C            1.54971766136561        0.19802086821118        0.26062899027803
C            0.72249944567286        1.37696825994901       -0.25065718461691
C           -0.72173747617536        1.37538237574330        0.25484957771042
C           -1.55223774458831        0.20506417199721       -0.27066491116667
C           -3.00572862734499        0.26123675230953        0.19651162205521
C           -3.83020769051997       -0.91728980136350       -0.32013126936267
C           -5.27582083436083       -0.86140027793473        0.14940410041500
H            5.35461106985628       -0.84279667514386       -1.22358087360947
H            5.75715008250363        0.04771614006663        0.24355341478252
H            5.84363200875116       -1.71292067894058        0.22947607865361
H            3.37625693712332       -1.85488717810284       -0.06401594352077
H            3.77801685499780       -0.96723678895149        1.40015099342725
H            3.46126915672616        1.19232157815144        0.17304803247692
H            3.04825353983226        0.29893972444426       -1.28495952721771
H            1.11053340621547       -0.73884550042251       -0.09434629207938
H            1.50926403409138        0.17572431422175        1.35500895518629
H            0.72416219379696        1.37433476724975       -1.34586589164785
H            1.20778361544360        2.30833719225515        0.06246090773897
H           -1.20508405830437        2.31181865055159       -0.04583623825790
H           -0.72273961266392        1.35851577057683        1.34994014371871
H           -1.52208397062637        0.20291365764451       -1.36557179619607
H           -1.10882174449790       -0.73759341069044        0.06292510757451
H           -3.46225098157517        1.19807872967677       -0.14060073763798
H           -3.03511811440528        0.27003832361697        1.29140741663091
H           -3.80088556042337       -0.92674999788784       -1.41534307488416
H           -3.37240186363106       -1.85422325870554        0.01625512528662
H           -5.76208260880538        0.05024226312159       -0.19743133680687
H           -5.84446062127087       -1.71039826607917       -0.22940709626250
H           -5.33186442578761       -0.87846559021163        1.23774593644106
32
 energy: -32.650524848652 gnorm: 0.002096649143 xtb: 6.6.1 (8d0f1dd)
C            5.27521492371376       -0.85088851632775       -0.13730473997526
C            3.82057024694773       -0.92454990587190        0.30736730188492
C            3.00514470116991        0.26691534768997       -0.19136662488343
C            1.54858201989783        0.19319288331094        0.26167924224217
C            0.72196952567919        1.37105557423843       -0.25167605442927
C           -0.72119479515671        1.36947981836101        0.25598549849373
C           -1.55111817768041        0.20034634220833       -0.27171585480177
C           -3.00320225998586        0.26403094573696        0.19698682970736
C           -3.82464394752511       -0.91495405543440       -0.32109707042827
C           -5.27159195688891       -0.85702445174898        0.15025305359590
H            5.34431174764163       -0.83913645390121       -1.22322164282800
H            5.74776244798526        0.05184309735978        0.24456737304742
H            5.83194922999819       -1.71006787998176        0.23113466891048
H            3.37469586174980       -1.84876193824512       -0.06912455369364
H            3.77784346711233       -0.95851543358663        1.39898728035897
H            3.45597464593656        1.19136683990129        0.17892237725016
H            3.04276930664183        0.29536839274737       -1.28345719995613
H            1.11650127988910       -0.74212069416031       -0.09886796261745
H            1.51198445939085        0.17895286442641        1.35415312911922
H            0.71945599220859        1.36181810871266       -1.34471183133379
H            1.20095081133438        2.30094409332541        0.06772849001956
H           -1.19822272475435        2.30455932979879       -0.05092061430357
H           -0.71811095693561        1.34598350199537        1.34882818285820
H           -1.52476390389329        0.20638058460341       -1.36455470223435
H           -1.11470401000548       -0.74093611429550        0.06739253010753
H           -3.45710621183678        1.19720110598333       -0.14672856382228
H           -3.02974294807618        0.26668585292382        1.28978249088107
H           -3.80038023031741       -0.91846176802425       -1.41378185637167
H           -3.37076762902382       -1.84825191042277        0.02195446776249
H           -5.75260004891848        0.05450261827428       -0.19875649043555
H           -5.83284241007656       -1.70736361817226       -0.23160002351974
H           -5.32182845622199       -0.87484156142473        1.23714086939499
32
 energy: -32.650538813675 gnorm: 0.000662554209 xtb: 6.6.1 (8d0f1dd)
C            5.27441460792213       -0.84948850072984       -0.13761397576684
C            3.81931283522607       -0.92386581424822        0.30790673083272
C            3.00424205704327        0.26753290001407       -0.19109637853192
C            1.54795633757723        0.19168067809239        0.26228557088765
C            0.72180693896968        1.36907250421858       -0.25220990183611
C           -0.72103447750857        1.36750117978320        0.25661966434464
C           -1.55051231620732        0.19891545979973       -0.27231707379228
C           -3.00232820117390        0.26468413260040        0.19672060692440
C           -3.82333069557669       -0.91432780195682       -0.32154729816003
C           -5.27080234497694       -0.85562256519341        0.15042515874281
H            5.34174826621739       -0.83708777936024       -1.22339820397815
H            5.74554032797794        0.05375465301766        0.24412787502543
H            5.83117963704596       -1.70839486702769        0.23052713274372
H            3.37336781884904       -1.84752745740270       -0.06852144976236
H            3.77664289678328       -0.95719964389374        1.39909425410686
H            3.45370879728845        1.19201452926347        0.17951857052248
H            3.04156131005651        0.29649847178619       -1.28278832645872
H            1.11769020263584       -0.74409929037819       -0.09803834837752
H            1.51136957902479        0.17763943984620        1.35433509721975
H            0.71855519920851        1.35819930424587       -1.34483554986393
H            1.20095583854636        2.29858447424054        0.06623335622822
H           -1.19818636470477        2.30223558389609       -0.04927005149153
H           -0.71723097774758        1.34230123694191        1.34903227440456
H           -1.52413232496311        0.20523368045125       -1.36472501867203
H           -1.11591260720967       -0.74285596478218        0.06651034820851
H           -3.45490494314888        1.19783052360402       -0.14745026354873
H           -3.02862069240132        0.26797537544533        1.28912528961707
H           -3.79893516554441       -0.91742332349758       -1.41377849348766
H           -3.36944918673477       -1.84701272870257        0.02171394940990
H           -5.75025856505126        0.05646646639566       -0.19850373384665
H           -5.83207407724172       -1.70563780657951       -0.23125404840428
H           -5.31947971018157       -0.87282404988987        1.23715023676003
32
 energy: -32.650548506814 gnorm: 0.001609882668 xtb: 6.6.1 (8d0f1dd)
C            5.27330220505836       -0.84634278356760       -0.13833038039650
C            3.81817252395040       -0.92247759369968        0.30909835565518
C            3.00271283000405        0.26818809733644       -0.18974127425298
C            1.54674879756470        0.18873545379984        0.26327877041292
C            0.72127022124904        1.36503065015855       -0.25324789242197
C           -0.72049697665529        1.36346973343685        0.25793480156658
C           -1.54934975755309        0.19616539850003       -0.27327403479811
C           -3.00088540519584        0.26545747872546        0.19535383141190
C           -3.82203906508277       -0.91309953087131       -0.32248517789678
C           -5.26972624185329       -0.85246408457275        0.15075056056180
H            5.33745438980164       -0.83255616931442       -1.22414001049662
H            5.74212516001079        0.05810551513553        0.24295627428335
H            5.83190939154173       -1.70424270914335        0.22838969422910
H            3.37175564156501       -1.84591405060826       -0.06646839006380
H            3.77541458890088       -0.95528446287264        1.40000205271822
H            3.44947469995364        1.19351360973182        0.18123135808810
H            3.03975015275828        0.29903646303453       -1.28115144090910
H            1.11922146487258       -0.74849017415862       -0.09600471344771
H            1.50942832537118        0.17457443686353        1.35501870346649
H            0.71632737555713        1.35069276719972       -1.34553702255661
H            1.20197809736739        2.29450116255728        0.06146323018898
H           -1.19910114522808        2.29822799331767       -0.04404972711040
H           -0.71503900724461        1.33459264306011        1.34996213122130
H           -1.52215590423004        0.20259056301721       -1.36537310394750
H           -1.11751921424287       -0.74710376877472        0.06434814969365
H           -3.45085961879752        1.19928652386905       -0.14949627020138
H           -3.02702423007331        0.27095021329308        1.28751409858672
H           -3.79704368052399       -0.91624719809929       -1.41441089597556
H           -3.36786363821840       -1.84535842147583        0.02061866278297
H           -5.74651711699390        0.06094818027826       -0.19787843564160
H           -5.83278941022925       -1.70137321903003       -0.22980307736743
H           -5.31577545340456       -0.86835971712646        1.23744917261682
32
 energy: -32.650553428352 gnorm: 0.000671646329 xtb: 6.6.1 (8d0f1dd)
C            5.27350025569948       -0.84481849113560       -0.13872504377985
C            3.81914580211141       -0.92207323345490        0.30962426641877
C            3.00268918774005        0.26791792120185       -0.18874911281578
C            1.54669387130742        0.18789886713473        0.26348466365780
C            0.72087710103024        1.36354071091364       -0.25371785420880
C           -0.72009776393608        1.36197274299261        0.25857056541772
C           -1.54931390514017        0.19541523245491       -0.27344377266883
C           -3.00091316478607        0.26526336026444        0.19434217601035
C           -3.82292501277929       -0.91278771919857       -0.32286103650264
C           -5.26995038107087       -0.85092481495726        0.15090780174521
H            5.33700618070814       -0.83081428287833       -1.22466326812488
H            5.74213594232224        0.05992382305369        0.24236657848944
H            5.83349693554678       -1.70225368262803        0.22719324528935
H            3.37294414487792       -1.84603807492446       -0.06556546904523
H            3.77694685609964       -0.95502814527216        1.40077244289257
H            3.44877093986847        1.19363113435853        0.18269795826266
H            3.04003133725497        0.29933174701194       -1.28034618885627
H            1.11940584213813       -0.74969577495831       -0.09574720943914
H            1.50864588461138        0.17390101731052        1.35543741233263
H            0.71507147189695        1.34798697810763       -1.34617961909980
H            1.20217082992129        2.29357179430897        0.05926196773034
H           -1.19924814900874        2.29732084751954       -0.04157391683973
H           -0.71378790054051        1.33175158674670        1.35074897251131
H           -1.52134953428562        0.20211315001259       -1.36575822970585
H           -1.11775724068392       -0.74826276266361        0.06405158376674
H           -3.45027177616894        1.19939700487822       -0.15115987136837
H           -3.02741161141943        0.27149488479259        1.28670294311098
H           -3.79820378478724       -0.91639620508550       -1.41501798728587
H           -3.36905514474422       -1.84546238071136        0.02024224033039
H           -5.74635991883324        0.06282678420005       -0.19765238911961
H           -5.83436176033264       -1.69933504605646       -0.22898660505073
H           -5.31566553461755       -0.86661597333858        1.23772075594511
