 Entering Gaussian System
 *********************************************
 Gaussian 98:
 frequency output generated by the xtb code
 *********************************************
                         Standard orientation:
 --------------------------------------------------------------------
  Center     Atomic     Atomic              Coordinates (Angstroms)
  Number     Number      Type              X           Y           Z
 --------------------------------------------------------------------
    1          6             0       -1.168810   -9.359867   -0.409693
    2          6             0       -1.966600   -8.080440   -0.189497
    3          6             0       -1.084201   -6.837780   -0.280797
    4          6             0       -1.877938   -5.549810   -0.076275
    5          6             0       -0.987715   -4.311228   -0.141892
    6          6             0       -1.781888   -3.020343    0.041906
    7          6             0       -0.885413   -1.785442    0.000047
    8          6             0       -1.678787   -0.491268    0.162891
    9          6             0       -0.776132    0.739272    0.126801
   10          6             0       -1.570367    2.036485    0.263233
   11          6             0       -0.680588    3.276422    0.352399
   12          6             0        0.075443    3.564614   -0.943610
   13          6             0        0.812610    4.903708   -0.921670
   14          6             0        1.967812    4.935370    0.076893
   15          6             0        2.764269    6.234553   -0.011707
   16          6             0        3.902425    6.280279    1.005076
   17          6             0        4.690964    7.580981    0.916720
   18          1             0       -0.708375   -9.357150   -1.395422
   19          1             0       -0.380497   -9.450482    0.334649
   20          1             0       -1.813736  -10.232423   -0.334582
   21          1             0       -2.441288   -8.113475    0.793895
   22          1             0       -2.760500   -8.014661   -0.937100
   23          1             0       -0.600194   -6.811292   -1.260068
   24          1             0       -0.296719   -6.899945    0.474192
   25          1             0       -2.377369   -5.583690    0.895012
   26          1             0       -2.653557   -5.478197   -0.842601
   27          1             0       -0.221647   -4.376726    0.634482
   28          1             0       -0.476374   -4.285088   -1.107167
   29          1             0       -2.536137   -2.945418   -0.745032
   30          1             0       -2.307242   -3.052372    0.999388
   31          1             0       -0.140022   -1.853943    0.796054
   32          1             0       -0.348980   -1.761656   -0.951618
   33          1             0       -2.419378   -0.418799   -0.637193
   34          1             0       -2.220426   -0.516305    1.111557
   35          1             0       -0.223338    0.743997   -0.813980
   36          1             0       -0.048915    0.676468    0.939959
   37          1             0       -2.182700    1.978935    1.166871
   38          1             0       -2.248709    2.136860   -0.587438
   39          1             0       -1.305304    4.140745    0.591863
   40          1             0        0.028518    3.141531    1.170803
   41          1             0        0.797658    2.769004   -1.134016
   42          1             0       -0.639075    3.570839   -1.770734
   43          1             0        0.106325    5.702608   -0.683339
   44          1             0        1.208008    5.101935   -1.921285
   45          1             0        1.579826    4.827408    1.091110
   46          1             0        2.633214    4.090428   -0.116696
   47          1             0        3.176214    6.339679   -1.018349
   48          1             0        2.094198    7.080427    0.160130
   49          1             0        4.574043    5.436062    0.832438
   50          1             0        3.490534    6.173783    2.011376
   51          1             0        4.041298    8.433534    1.103048
   52          1             0        5.493624    7.594128    1.650545
   53          1             0        5.128363    7.695232   -0.072839
 --------------------------------------------------------------------
     1 basis functions        1 primitive gaussians
     1 alpha electrons        1 beta electrons
 
 Harmonic frequencies (cm**-1), IR intensities (km*mol⁻¹),
 Raman scattering activities (A**4/amu), Raman depolarization ratios,
 reduced masses (AMU), force constants (mDyne/A) and normal coordinates:
                      1                      2                      3
                        a                      a                      a 
 Frequencies --     9.5202                17.9937                24.1383
 Red. masses --     9.7794                 7.1965                 7.2449
 Frc consts  --     0.0000                 0.0000                 0.0000
 IR Inten    --     0.0008                 0.0005                 0.0007
 Raman Activ --     0.0000                 0.0000                 0.0000
 Depolar     --     0.0000                 0.0000                 0.0000
 Atom AN      X      Y      Z        X      Y      Z        X      Y      Z
   1   6     0.25   0.07   0.10     0.07   0.04  -0.18     0.07   0.07  -0.36
   2   6     0.19   0.04   0.05     0.00   0.03  -0.37     0.10   0.02   0.09
   3   6     0.13   0.08   0.04     0.05   0.03   0.08     0.02   0.06  -0.13
   4   6     0.07   0.05  -0.00    -0.01   0.02  -0.11     0.04   0.01   0.26
   5   6     0.02   0.09  -0.00     0.03   0.02   0.29    -0.03   0.05   0.04
   6   6    -0.03   0.06  -0.04    -0.03   0.02   0.07    -0.02   0.02   0.29
   7   6    -0.07   0.09  -0.04    -0.01   0.01   0.35    -0.07   0.04   0.08
   8   6    -0.11   0.07  -0.06    -0.05   0.02   0.11    -0.06   0.03   0.15
   9   6    -0.14   0.09  -0.05    -0.03   0.02   0.24    -0.07   0.04  -0.02
  10   6    -0.17   0.07  -0.05    -0.06   0.03  -0.02    -0.07   0.05  -0.11
  11   6    -0.19   0.09  -0.03    -0.07   0.04  -0.06    -0.05   0.04  -0.15
  12   6    -0.21   0.14  -0.03     0.03  -0.08  -0.03     0.08  -0.10  -0.10
  13   6    -0.12   0.08   0.06     0.05  -0.09  -0.09     0.12  -0.12  -0.15
  14   6    -0.05  -0.10  -0.02    -0.01  -0.03  -0.02    -0.02  -0.04   0.01
  15   6     0.05  -0.15   0.05     0.03  -0.06  -0.09     0.07  -0.10  -0.05
  16   6     0.13  -0.35  -0.03    -0.03   0.00  -0.03    -0.10  -0.01   0.13
  17   6     0.23  -0.40   0.04     0.03  -0.04  -0.12    -0.01  -0.07   0.06
  18   1     0.08   0.02   0.03     0.13   0.04  -0.00    -0.09   0.06  -0.16
  19   1     0.07   0.04   0.04    -0.06  -0.01   0.03     0.11   0.01  -0.20
  20   1     0.08   0.01   0.03     0.01   0.01  -0.15     0.04   0.01  -0.06
  21   1     0.05   0.01   0.01    -0.11  -0.01  -0.16     0.14  -0.03   0.08
  22   1     0.06  -0.00   0.01     0.08   0.03  -0.19    -0.06   0.02   0.12
  23   1     0.05   0.02   0.02     0.12   0.03   0.08    -0.10   0.05  -0.09
  24   1     0.03   0.04   0.02    -0.07  -0.01   0.11     0.08   0.01  -0.12
  25   1     0.01   0.01  -0.00    -0.10  -0.01  -0.08     0.11  -0.02   0.13
  26   1     0.03   0.00  -0.01     0.08   0.02  -0.11    -0.07   0.01   0.16
  27   1     0.00   0.04   0.00    -0.07  -0.01   0.16     0.05   0.02  -0.05
  28   1     0.01   0.03   0.00     0.11   0.02   0.14    -0.09   0.03  -0.03
  29   1    -0.00   0.01  -0.02     0.06   0.01  -0.05    -0.07   0.00   0.14
  30   1    -0.01   0.02  -0.02    -0.09   0.00  -0.03     0.07  -0.01   0.12
  31   1    -0.02   0.03  -0.01    -0.07   0.00   0.17     0.02   0.03  -0.01
  32   1    -0.02   0.03  -0.01     0.08   0.00   0.15    -0.07   0.00  -0.01
  33   1    -0.03   0.01  -0.02     0.04  -0.01  -0.02    -0.05  -0.00   0.07
  34   1    -0.04   0.02  -0.02    -0.08   0.02  -0.01     0.02   0.02   0.06
  35   1    -0.04   0.03  -0.01     0.05  -0.01   0.11    -0.04  -0.02  -0.02
  36   1    -0.04   0.03  -0.01    -0.06   0.02   0.12    -0.01   0.04  -0.02
  37   1    -0.05   0.02  -0.02    -0.05   0.04  -0.03    -0.03   0.03  -0.04
  38   1    -0.05   0.02  -0.02     0.02  -0.02  -0.04    -0.01   0.00  -0.04
  39   1    -0.06   0.02   0.00    -0.03   0.02  -0.06    -0.02   0.02  -0.09
  40   1    -0.05   0.02  -0.01    -0.04   0.04   0.00    -0.04   0.03  -0.02
  41   1    -0.08   0.03  -0.03     0.01  -0.03   0.03     0.02  -0.04   0.02
  42   1    -0.07   0.07  -0.00     0.03  -0.04  -0.02     0.05  -0.05  -0.05
  43   1    -0.01   0.03   0.05     0.01  -0.02  -0.06     0.03  -0.02  -0.10
  44   1    -0.05   0.05   0.01     0.03  -0.05  -0.02     0.08  -0.07  -0.03
  45   1     0.00  -0.05  -0.00    -0.02   0.02  -0.01    -0.05   0.03  -0.01
  46   1    -0.04  -0.04  -0.04    -0.01  -0.02   0.03    -0.01  -0.03   0.06
  47   1    -0.01  -0.02   0.01     0.03  -0.05  -0.02     0.07  -0.08  -0.00
  48   1     0.04  -0.03   0.06     0.01  -0.01  -0.06     0.02  -0.01  -0.08
  49   1     0.01  -0.11  -0.05    -0.01  -0.01   0.03    -0.04  -0.02   0.11
  50   1     0.06  -0.12  -0.00    -0.03   0.04  -0.01    -0.08   0.05   0.02
  51   1     0.09  -0.11   0.05     0.01   0.00  -0.07     0.00  -0.00  -0.05
  52   1     0.08  -0.16  -0.00    -0.00   0.00  -0.02    -0.04  -0.00   0.06
  53   1     0.05  -0.10   0.01     0.03  -0.04  -0.03     0.05  -0.07   0.04
                      4                      5                      6
                        a                      a                      a 
 Frequencies --    33.5413                39.6960                56.5638
 Red. masses --     8.4739                 7.8081                 9.4552
 Frc consts  --     0.0000                 0.0000                 0.0000
 IR Inten    --     0.0093                 0.0011                 0.0073
 Raman Activ --     0.0000                 0.0000                 0.0000
 Depolar     --     0.0000                 0.0000                 0.0000
 Atom AN      X      Y      Z        X      Y      Z        X      Y      Z
   1   6     0.28   0.02   0.19     0.24   0.05  -0.01     0.08  -0.03  -0.27
   2   6     0.14  -0.04   0.04     0.12  -0.03  -0.02     0.04  -0.10  -0.02
   3   6     0.02   0.04  -0.06     0.00   0.05  -0.00     0.00  -0.05   0.20
   4   6    -0.09  -0.01  -0.15    -0.10  -0.01  -0.00    -0.05  -0.09   0.25
   5   6    -0.16   0.04  -0.18    -0.17   0.04   0.01    -0.08  -0.07   0.26
   6   6    -0.20   0.01  -0.15    -0.20   0.01   0.03    -0.12  -0.06   0.04
   7   6    -0.21   0.02  -0.11    -0.20   0.01   0.03    -0.11  -0.06  -0.08
   8   6    -0.17   0.02  -0.00    -0.15   0.03   0.04    -0.10  -0.03  -0.27
   9   6    -0.11  -0.02   0.05    -0.09  -0.01   0.03    -0.05  -0.05  -0.26
  10   6    -0.02   0.03   0.13     0.00   0.04   0.04    -0.00  -0.03  -0.16
  11   6     0.07  -0.04   0.13     0.10  -0.03   0.01     0.03  -0.07   0.01
  12   6     0.13  -0.14   0.14     0.09  -0.09  -0.00     0.07   0.07   0.06
  13   6     0.11  -0.12   0.04     0.12  -0.10  -0.05    -0.01   0.12   0.18
  14   6    -0.02   0.04   0.18     0.26  -0.16  -0.20     0.00   0.13   0.17
  15   6     0.10  -0.05  -0.07     0.00   0.02   0.03    -0.03   0.14   0.14
  16   6    -0.05   0.16   0.08     0.17  -0.06  -0.16     0.13   0.11  -0.03
  17   6     0.12   0.03  -0.24    -0.22   0.21   0.21     0.17   0.07  -0.18
  18   1     0.09  -0.01   0.06     0.08   0.03  -0.00     0.02   0.05  -0.08
  19   1     0.08   0.05   0.06     0.07   0.04   0.00     0.03  -0.04  -0.09
  20   1     0.11  -0.01   0.07     0.10  -0.00  -0.01     0.03  -0.02  -0.13
  21   1     0.03   0.00   0.01     0.03  -0.02  -0.01     0.01  -0.09  -0.01
  22   1     0.05  -0.06   0.00     0.04  -0.03  -0.01     0.01   0.01  -0.00
  23   1     0.01   0.00  -0.02     0.00   0.03   0.00     0.03   0.02   0.07
  24   1     0.01   0.05  -0.02     0.00   0.03   0.00    -0.02  -0.03   0.08
  25   1    -0.03  -0.00  -0.05    -0.03  -0.02  -0.00    -0.02  -0.04   0.07
  26   1    -0.02  -0.03  -0.05    -0.03  -0.02  -0.00    -0.01  -0.03   0.07
  27   1    -0.04   0.02  -0.06    -0.05   0.02   0.00    -0.05   0.00   0.10
  28   1    -0.05   0.02  -0.06    -0.05   0.02   0.00     0.01  -0.04   0.09
  29   1    -0.06   0.01  -0.04    -0.06   0.00   0.01    -0.02  -0.05  -0.00
  30   1    -0.06  -0.01  -0.04    -0.06   0.00   0.01    -0.05   0.02   0.00
  31   1    -0.05  -0.01  -0.04    -0.06  -0.00   0.01    -0.04   0.01  -0.01
  32   1    -0.07   0.02  -0.04    -0.06   0.00   0.01    -0.02  -0.05  -0.02
  33   1    -0.05   0.03   0.01    -0.05   0.02   0.02    -0.00  -0.02  -0.10
  34   1    -0.04  -0.00   0.00    -0.04   0.02   0.02    -0.06   0.02  -0.09
  35   1    -0.04   0.00   0.01    -0.03  -0.01   0.01    -0.02  -0.01  -0.08
  36   1    -0.03  -0.03   0.01    -0.02  -0.02   0.00    -0.01  -0.03  -0.08
  37   1     0.01   0.01   0.05     0.01   0.03   0.02    -0.01  -0.03  -0.06
  38   1    -0.01   0.03   0.05    -0.00   0.02   0.02     0.01   0.02  -0.05
  39   1     0.04   0.00   0.03     0.05   0.01   0.01     0.01  -0.02   0.03
  40   1     0.01  -0.02   0.04     0.03  -0.02   0.00     0.00  -0.05   0.00
  41   1     0.04  -0.04   0.07     0.02  -0.03   0.00     0.04   0.04   0.01
  42   1     0.05  -0.06   0.03     0.02  -0.03   0.00     0.03   0.03   0.01
  43   1     0.02  -0.03  -0.05     0.05  -0.03   0.03    -0.02   0.01   0.07
  44   1     0.07  -0.08   0.02    -0.00  -0.02  -0.03    -0.01   0.06   0.06
  45   1    -0.04   0.10   0.05     0.12  -0.14  -0.05     0.01   0.03   0.05
  46   1    -0.02  -0.02   0.14     0.11   0.00  -0.15     0.00   0.04   0.04
  47   1     0.07  -0.11  -0.01    -0.06   0.11  -0.00    -0.05   0.06   0.03
  48   1     0.04   0.02  -0.12    -0.04  -0.05   0.11    -0.00   0.04   0.08
  49   1    -0.03   0.01   0.13     0.11   0.06  -0.18     0.02   0.02  -0.04
  50   1    -0.06   0.16   0.02     0.11  -0.16  -0.04     0.08   0.04   0.01
  51   1     0.06   0.05  -0.19    -0.13  -0.02   0.20     0.07   0.03  -0.03
  52   1     0.00   0.06  -0.04    -0.02   0.04   0.01     0.08   0.01  -0.09
  53   1     0.08  -0.11  -0.06    -0.13   0.21   0.05     0.01   0.01  -0.07
                      7                      8                      9
                        a                      a                      a 
 Frequencies --    61.9963                74.8105                80.7100
 Red. masses --     6.0869                 7.4255                 9.2453
 Frc consts  --     0.0000                 0.0000                 0.0000
 IR Inten    --     0.0046                 0.0056                 0.0078
 Raman Activ --     0.0000                 0.0000                 0.0000
 Depolar     --     0.0000                 0.0000                 0.0000
 Atom AN      X      Y      Z        X      Y      Z        X      Y      Z
   1   6     0.07   0.02   0.02    -0.11  -0.02   0.15    -0.21   0.03  -0.18
   2   6    -0.03   0.01  -0.25    -0.06   0.06  -0.17    -0.01   0.11   0.09
   3   6     0.01   0.01   0.17     0.05  -0.01  -0.03     0.14   0.02   0.23
   4   6    -0.04   0.00   0.06     0.11   0.03  -0.04     0.20   0.07   0.12
   5   6    -0.04   0.01   0.10     0.11   0.02  -0.10     0.20   0.06   0.06
   6   6    -0.02   0.01   0.18     0.12  -0.01   0.19     0.09   0.04  -0.25
   7   6    -0.04   0.01  -0.18     0.02   0.05  -0.10     0.00   0.10  -0.22
   8   6     0.03   0.01   0.12    -0.03  -0.02   0.16    -0.10   0.04  -0.18
   9   6     0.02   0.01  -0.30    -0.14   0.05  -0.14    -0.14   0.06  -0.02
  10   6     0.11   0.01   0.14    -0.20   0.01  -0.15    -0.11   0.05   0.19
  11   6     0.18  -0.04   0.06    -0.24   0.04  -0.07    -0.05   0.00   0.16
  12   6    -0.07   0.05  -0.07     0.12  -0.15   0.10    -0.04  -0.12   0.14
  13   6    -0.04   0.04  -0.09     0.10  -0.14   0.10     0.05  -0.17   0.03
  14   6    -0.03  -0.00  -0.10     0.04  -0.05   0.18     0.09  -0.18  -0.02
  15   6     0.05  -0.05  -0.10    -0.06   0.01   0.16     0.09  -0.19  -0.11
  16   6    -0.13  -0.02   0.09     0.15   0.02  -0.08    -0.01  -0.01  -0.01
  17   6    -0.04  -0.07   0.13     0.02   0.10  -0.16    -0.16   0.08  -0.01
  18   1     0.15   0.03   0.07     0.06  -0.04   0.09    -0.09   0.04  -0.07
  19   1    -0.08  -0.01   0.11    -0.10  -0.02   0.12    -0.05  -0.06  -0.08
  20   1     0.01   0.01  -0.10    -0.06   0.01  -0.00    -0.10   0.03  -0.08
  21   1    -0.13  -0.01  -0.13    -0.10   0.05  -0.09     0.01   0.00   0.03
  22   1     0.08   0.01  -0.17     0.04   0.02  -0.11    -0.01   0.10   0.04
  23   1     0.09   0.03   0.10     0.04   0.00   0.01     0.08  -0.01   0.09
  24   1    -0.07  -0.02   0.12    -0.01  -0.03   0.01     0.01  -0.02   0.10
  25   1    -0.04   0.01   0.00     0.04   0.02  -0.01     0.04   0.04   0.03
  26   1     0.01  -0.01  -0.01     0.02   0.01  -0.00     0.07   0.01   0.02
  27   1    -0.00  -0.01   0.02     0.08  -0.01  -0.07     0.02   0.06   0.06
  28   1    -0.02   0.01   0.02    -0.02   0.03  -0.06     0.10  -0.02   0.04
  29   1    -0.07  -0.02   0.11    -0.04  -0.01   0.13     0.07  -0.03  -0.11
  30   1     0.07   0.03   0.09     0.13  -0.02   0.10    -0.02   0.03  -0.10
  31   1     0.08   0.01  -0.14     0.08   0.03  -0.10    -0.00   0.04  -0.06
  32   1    -0.12   0.00  -0.11    -0.08   0.03  -0.08     0.00   0.05  -0.06
  33   1    -0.10  -0.00   0.13    -0.08  -0.02   0.11    -0.01   0.02  -0.06
  34   1     0.13   0.01   0.11     0.08  -0.02   0.10    -0.05  -0.02  -0.06
  35   1    -0.13   0.01  -0.17    -0.09  -0.01  -0.07    -0.05   0.06  -0.01
  36   1     0.12  -0.01  -0.19     0.00   0.06  -0.08    -0.03  -0.01  -0.01
  37   1     0.11  -0.03   0.10    -0.07  -0.01  -0.05    -0.00  -0.00   0.08
  38   1    -0.05   0.05   0.11    -0.04   0.00  -0.05    -0.06   0.04   0.08
  39   1     0.08  -0.01   0.08    -0.09   0.02  -0.11     0.00   0.02   0.03
  40   1     0.10  -0.04  -0.03    -0.13   0.05   0.04    -0.02  -0.00   0.05
  41   1    -0.04   0.02  -0.08     0.05  -0.05   0.12    -0.02  -0.05   0.05
  42   1    -0.07   0.04   0.02     0.10  -0.08  -0.03    -0.01  -0.04   0.04
  43   1    -0.00   0.02  -0.02     0.02  -0.04  -0.00     0.03  -0.03   0.00
  44   1    -0.02   0.01  -0.03     0.05  -0.05   0.04     0.01  -0.08  -0.00
  45   1    -0.01   0.01  -0.03    -0.00  -0.02   0.05     0.04  -0.04  -0.00
  46   1    -0.02  -0.01  -0.02     0.03  -0.00   0.07     0.02  -0.06  -0.00
  47   1     0.06  -0.05  -0.01    -0.08   0.04   0.03     0.05  -0.09  -0.02
  48   1     0.02  -0.00  -0.08    -0.02  -0.01   0.10     0.02  -0.05  -0.08
  49   1    -0.04  -0.02   0.08     0.05   0.03  -0.08     0.03   0.02   0.03
  50   1    -0.09   0.02   0.01     0.11  -0.03   0.00    -0.03   0.00  -0.01
  51   1    -0.01  -0.01  -0.02    -0.00   0.01   0.02    -0.08   0.00  -0.04
  52   1    -0.05  -0.02   0.08     0.06   0.03  -0.10    -0.07   0.07   0.02
  53   1     0.05  -0.05   0.06    -0.07   0.06  -0.08    -0.02   0.02   0.01
                     10                     11                     12
                        a                      a                      a 
 Frequencies --   105.0700               109.3432               119.2972
 Red. masses --     8.0464                 6.4063                 7.7893
 Frc consts  --     0.0000                 0.0000                 0.0000
 IR Inten    --     0.0134                 0.0014                 0.0080
 Raman Activ --     0.0000                 0.0000                 0.0000
 Depolar     --     0.0000                 0.0000                 0.0000
 Atom AN      X      Y      Z        X      Y      Z        X      Y      Z
   1   6     0.01   0.07  -0.12     0.07   0.00  -0.01     0.11   0.04  -0.18
   2   6     0.01   0.03   0.07    -0.04  -0.04  -0.17     0.01  -0.08   0.18
   3   6     0.02   0.04   0.22    -0.03  -0.02   0.18    -0.08  -0.01   0.28
   4   6    -0.02   0.04   0.04    -0.02  -0.03   0.30    -0.18  -0.00  -0.16
   5   6    -0.03   0.04  -0.06    -0.09  -0.01  -0.24    -0.12  -0.04  -0.07
   6   6    -0.03   0.05  -0.18    -0.01  -0.00   0.02    -0.02   0.03  -0.17
   7   6     0.00   0.03  -0.15     0.00  -0.02  -0.22     0.09  -0.04  -0.09
   8   6     0.06   0.02   0.11     0.05  -0.00  -0.12     0.19  -0.04   0.33
   9   6     0.08   0.00   0.13     0.10  -0.02   0.38     0.11   0.01   0.01
  10   6     0.09   0.01   0.12     0.02  -0.03  -0.04    -0.03  -0.06  -0.12
  11   6     0.11  -0.00  -0.03    -0.08   0.04  -0.02    -0.22   0.08  -0.10
  12   6     0.15  -0.19  -0.05    -0.04   0.06  -0.00    -0.07   0.08  -0.00
  13   6     0.03  -0.12  -0.23    -0.02   0.05   0.03    -0.00   0.04   0.11
  14   6    -0.25   0.16   0.07     0.05  -0.01  -0.05     0.12  -0.10  -0.02
  15   6    -0.27   0.18   0.14     0.07  -0.02  -0.06     0.07  -0.07   0.02
  16   6    -0.05  -0.13  -0.10     0.00   0.02   0.01     0.03   0.06   0.06
  17   6     0.07  -0.20   0.04    -0.01   0.03   0.02    -0.02   0.08  -0.07
  18   1    -0.00   0.06  -0.04     0.14   0.04   0.05    -0.03   0.07  -0.08
  19   1     0.01  -0.01  -0.05    -0.07  -0.03   0.09     0.08   0.00  -0.11
  20   1     0.00   0.02  -0.07     0.01  -0.00  -0.12     0.06  -0.01  -0.05
  21   1     0.00  -0.03   0.02    -0.10  -0.03  -0.09     0.04  -0.09   0.07
  22   1     0.00   0.04   0.02     0.06   0.00  -0.12    -0.02  -0.00   0.08
  23   1     0.06   0.01   0.09     0.02   0.04   0.07     0.06  -0.03   0.12
  24   1    -0.03   0.02   0.10    -0.03  -0.05   0.07    -0.08   0.04   0.15
  25   1    -0.02   0.04   0.00     0.10   0.02   0.15    -0.14   0.04  -0.09
  26   1     0.01  -0.02  -0.00    -0.09  -0.05   0.17     0.02  -0.03  -0.12
  27   1    -0.01   0.03  -0.01     0.08   0.02  -0.18    -0.06  -0.03   0.01
  28   1    -0.00  -0.01  -0.02    -0.16  -0.03  -0.14     0.00  -0.03   0.00
  29   1     0.01   0.01  -0.07    -0.08   0.01   0.08     0.02   0.03  -0.07
  30   1    -0.03   0.03  -0.06     0.08  -0.00   0.05    -0.03   0.02  -0.06
  31   1     0.03  -0.02  -0.07     0.04   0.00  -0.10     0.07  -0.08  -0.07
  32   1    -0.03   0.04  -0.06    -0.05  -0.02  -0.09    -0.03   0.03  -0.05
  33   1    -0.01   0.04   0.06     0.07   0.06  -0.08    -0.04   0.00   0.19
  34   1     0.05  -0.02   0.05    -0.06  -0.05  -0.08     0.17  -0.03   0.16
  35   1     0.02  -0.00   0.04     0.17  -0.01   0.20    -0.00  -0.03  -0.02
  36   1     0.02  -0.00   0.04    -0.10  -0.01   0.22     0.06   0.06  -0.02
  37   1     0.05   0.02   0.05    -0.07   0.03  -0.06    -0.03  -0.02  -0.05
  38   1     0.01  -0.01   0.05     0.07  -0.06  -0.07     0.01  -0.05  -0.05
  39   1     0.03   0.01  -0.05    -0.05   0.00  -0.03    -0.11   0.00  -0.08
  40   1     0.02   0.03   0.00    -0.03   0.04   0.01    -0.09   0.07   0.01
  41   1     0.07  -0.05   0.05    -0.02   0.02  -0.00    -0.03   0.01   0.01
  42   1     0.06  -0.12  -0.03    -0.01   0.03  -0.00     0.01   0.04  -0.02
  43   1    -0.03  -0.03  -0.18     0.00   0.01   0.03     0.02   0.01   0.08
  44   1     0.08  -0.10  -0.05    -0.02   0.03   0.00    -0.03   0.05   0.03
  45   1    -0.14   0.08  -0.00     0.03  -0.01  -0.01     0.07  -0.07   0.01
  46   1    -0.04   0.05   0.10     0.00  -0.01  -0.03     0.03  -0.02  -0.06
  47   1    -0.14   0.11   0.02     0.04  -0.02  -0.01     0.03  -0.02   0.01
  48   1    -0.06   0.05   0.13     0.02  -0.00  -0.04     0.00  -0.03  -0.01
  49   1    -0.05  -0.04  -0.13     0.01   0.01   0.02     0.02   0.02   0.06
  50   1     0.05  -0.10  -0.01    -0.02   0.02  -0.00    -0.00   0.05   0.02
  51   1     0.07  -0.05   0.14    -0.01   0.01  -0.02    -0.02   0.02  -0.07
  52   1     0.08  -0.15  -0.06    -0.02   0.02   0.03    -0.02   0.07   0.00
  53   1    -0.06   0.01  -0.02     0.02  -0.00   0.01     0.02  -0.02  -0.01
                     13                     14                     15
                        a                      a                      a 
 Frequencies --   120.2876               128.3180               146.0840
 Red. masses --     6.9566                 9.2002                 7.0903
 Frc consts  --     0.0000                 0.0000                 0.0000
 IR Inten    --     0.0011                 0.0105                 0.0057
 Raman Activ --     0.0000                 0.0000                 0.0000
 Depolar     --     0.0000                 0.0000                 0.0000
 Atom AN      X      Y      Z        X      Y      Z        X      Y      Z
   1   6     0.09   0.03  -0.00     0.21   0.20   0.06     0.00  -0.04   0.03
   2   6    -0.01  -0.03  -0.00    -0.06   0.06  -0.07     0.01  -0.04   0.03
   3   6    -0.08   0.01  -0.02    -0.22   0.16  -0.14    -0.03  -0.03  -0.16
   4   6    -0.09   0.00   0.01    -0.20   0.12   0.13    -0.03  -0.02  -0.18
   5   6    -0.05  -0.03   0.04    -0.07   0.02   0.17     0.05  -0.05   0.38
   6   6     0.01   0.02   0.01     0.08   0.12   0.01     0.03  -0.03   0.18
   7   6     0.07  -0.02  -0.01     0.22   0.01  -0.07    -0.06   0.02  -0.42
   8   6     0.10  -0.01  -0.04     0.23   0.02  -0.22    -0.02  -0.00  -0.07
   9   6     0.07   0.01  -0.05     0.18   0.04  -0.10     0.00  -0.00   0.24
  10   6     0.01  -0.03  -0.02     0.04  -0.07   0.08    -0.02   0.01   0.02
  11   6    -0.07   0.03   0.02    -0.09   0.00   0.05    -0.07   0.05   0.02
  12   6    -0.03   0.03   0.04    -0.03  -0.12   0.06     0.04  -0.02   0.06
  13   6    -0.03   0.03   0.04     0.01  -0.16   0.02    -0.02   0.02  -0.02
  14   6    -0.24   0.15   0.28     0.01  -0.21   0.02     0.03   0.08  -0.09
  15   6     0.23  -0.17  -0.23    -0.15  -0.11   0.13     0.02   0.09  -0.08
  16   6     0.21  -0.13  -0.21    -0.09  -0.04   0.05    -0.02   0.02  -0.03
  17   6    -0.17   0.12   0.15    -0.11  -0.04  -0.17     0.07  -0.03   0.09
  18   1     0.02   0.02  -0.00     0.08   0.07   0.03    -0.07  -0.05  -0.02
  19   1     0.03   0.03  -0.00     0.05   0.12   0.03     0.05   0.03  -0.04
  20   1     0.05  -0.01   0.00     0.12   0.02   0.02     0.02  -0.02   0.09
  21   1     0.00  -0.02   0.00    -0.02   0.01  -0.02     0.04   0.01   0.03
  22   1    -0.01  -0.03   0.00    -0.01  -0.04  -0.03    -0.03  -0.03   0.04
  23   1    -0.03   0.01  -0.01    -0.12   0.08  -0.07    -0.03  -0.03  -0.06
  24   1    -0.02   0.01  -0.01    -0.02   0.04  -0.09     0.01   0.01  -0.06
  25   1    -0.03  -0.00  -0.00    -0.02   0.01   0.05    -0.11  -0.05  -0.11
  26   1    -0.02   0.01  -0.00    -0.08   0.08   0.06     0.07   0.05  -0.13
  27   1    -0.02  -0.02   0.02    -0.04  -0.01   0.07    -0.08  -0.05   0.20
  28   1    -0.00  -0.01   0.02     0.01  -0.02   0.06     0.13   0.01   0.17
  29   1     0.01   0.01  -0.00     0.04   0.04  -0.01    -0.05  -0.09   0.10
  30   1     0.00   0.02   0.00     0.01   0.08  -0.00     0.08   0.07   0.09
  31   1     0.02  -0.01  -0.00     0.05   0.01  -0.01     0.11   0.03  -0.24
  32   1     0.02  -0.02  -0.00     0.08  -0.03  -0.01    -0.17  -0.01  -0.21
  33   1     0.03  -0.01  -0.01     0.10  -0.00  -0.09    -0.01   0.06  -0.01
  34   1     0.03   0.00  -0.01     0.03   0.01  -0.09     0.00  -0.07  -0.02
  35   1     0.01   0.01  -0.02     0.04   0.05  -0.03     0.08   0.01   0.12
  36   1     0.03   0.01  -0.02     0.06   0.00  -0.04    -0.07  -0.01   0.13
  37   1     0.00  -0.03  -0.01     0.04  -0.06   0.04    -0.04   0.02  -0.02
  38   1     0.00  -0.01  -0.00    -0.02  -0.03   0.05     0.03  -0.02  -0.03
  39   1    -0.04  -0.00  -0.01    -0.05  -0.00  -0.02    -0.04   0.01  -0.03
  40   1    -0.03   0.02   0.01    -0.04   0.04   0.03    -0.04   0.04   0.03
  41   1    -0.00   0.01   0.02    -0.01  -0.04   0.04     0.03  -0.00   0.06
  42   1     0.00   0.00   0.00    -0.00  -0.04   0.01     0.03  -0.04   0.00
  43   1    -0.02   0.02  -0.07     0.02  -0.04   0.01    -0.01  -0.00  -0.00
  44   1     0.06  -0.04   0.03     0.01  -0.05   0.01    -0.03   0.00  -0.02
  45   1    -0.15   0.24   0.07     0.01  -0.10   0.01     0.02   0.01  -0.02
  46   1    -0.14  -0.05   0.25     0.03  -0.04  -0.03     0.01   0.03  -0.04
  47   1     0.09  -0.21  -0.08    -0.06   0.01   0.03     0.02   0.03  -0.02
  48   1     0.15   0.04  -0.17    -0.07  -0.06   0.07     0.01   0.03  -0.02
  49   1     0.13   0.03  -0.12    -0.03  -0.02   0.02    -0.02  -0.00  -0.00
  50   1     0.06  -0.14  -0.07    -0.00   0.02   0.03    -0.02   0.00  -0.02
  51   1    -0.11  -0.04   0.16    -0.03  -0.01  -0.07     0.03   0.00   0.02
  52   1    -0.02   0.02   0.01    -0.02   0.02  -0.07     0.00  -0.03   0.05
  53   1    -0.10   0.18   0.04    -0.05  -0.05  -0.06     0.05  -0.00   0.04
                     16                     17                     18
                        a                      a                      a 
 Frequencies --   149.9408               157.7346               193.3696
 Red. masses --     7.1799                 8.0566                 8.8076
 Frc consts  --     0.0000                 0.0000                 0.0000
 IR Inten    --     0.0122                 0.0764                 0.0032
 Raman Activ --     0.0000                 0.0000                 0.0000
 Depolar     --     0.0000                 0.0000                 0.0000
 Atom AN      X      Y      Z        X      Y      Z        X      Y      Z
   1   6    -0.03   0.07  -0.09     0.06   0.01  -0.05     0.03  -0.26  -0.02
   2   6     0.03   0.06   0.15    -0.02  -0.06   0.04    -0.00  -0.27  -0.01
   3   6     0.05   0.05   0.21    -0.07  -0.02   0.11    -0.06  -0.21   0.01
   4   6    -0.04   0.07  -0.34    -0.09  -0.00  -0.06    -0.04  -0.16  -0.02
   5   6    -0.02   0.05  -0.17    -0.04  -0.04  -0.15    -0.04  -0.12  -0.02
   6   6     0.05   0.01   0.39     0.07  -0.00   0.10     0.05  -0.02   0.03
   7   6     0.02   0.01   0.06     0.11  -0.02   0.14     0.04   0.04   0.02
   8   6    -0.02   0.02  -0.25     0.05  -0.02  -0.17     0.03   0.10  -0.11
   9   6     0.03  -0.02   0.01    -0.04   0.04  -0.17    -0.04   0.19  -0.00
  10   6     0.06  -0.01  -0.01    -0.11  -0.02   0.08    -0.04   0.20   0.27
  11   6     0.12  -0.07   0.02    -0.20   0.05   0.13    -0.12   0.31  -0.02
  12   6    -0.04   0.01  -0.06     0.12  -0.17   0.27    -0.14   0.15  -0.08
  13   6     0.02  -0.04   0.01    -0.09  -0.03   0.00     0.21  -0.03  -0.21
  14   6    -0.05  -0.09   0.09     0.08   0.16  -0.21     0.03  -0.02   0.02
  15   6    -0.05  -0.10   0.08     0.04   0.19  -0.23     0.00   0.02   0.13
  16   6    -0.01  -0.04   0.02    -0.07   0.04  -0.09     0.06   0.04   0.07
  17   6    -0.10   0.00  -0.10     0.16  -0.08   0.22     0.03   0.05  -0.04
  18   1    -0.07   0.04  -0.05     0.02   0.03  -0.01     0.01  -0.07  -0.01
  19   1     0.04   0.01  -0.08     0.02   0.01  -0.02     0.01  -0.07  -0.01
  20   1    -0.00   0.02  -0.00     0.04  -0.01  -0.03     0.01  -0.08  -0.01
  21   1     0.03  -0.01   0.05    -0.01  -0.04   0.01    -0.00  -0.09  -0.00
  22   1    -0.01   0.05   0.06    -0.01  -0.02   0.01    -0.00  -0.09  -0.00
  23   1     0.12  -0.04   0.11     0.02  -0.02   0.05    -0.01  -0.06   0.00
  24   1    -0.06   0.06   0.14    -0.05   0.01   0.06    -0.02  -0.06   0.01
  25   1    -0.12   0.06  -0.15    -0.04   0.03  -0.02    -0.02  -0.04  -0.01
  26   1     0.08  -0.02  -0.19    -0.01  -0.02  -0.03    -0.01  -0.05  -0.01
  27   1     0.04  -0.05  -0.10     0.03  -0.04  -0.09    -0.00  -0.05  -0.01
  28   1    -0.07   0.09  -0.08    -0.06   0.00  -0.07    -0.02  -0.04  -0.01
  29   1    -0.10   0.03   0.23    -0.00   0.04   0.06     0.00   0.00   0.02
  30   1     0.15  -0.03   0.19     0.05  -0.02   0.04     0.03  -0.01   0.02
  31   1     0.01   0.07   0.01    -0.01   0.02   0.09    -0.00   0.03   0.02
  32   1    -0.01  -0.06   0.01     0.09  -0.04   0.07     0.03  -0.00   0.01
  33   1     0.07   0.00  -0.14     0.05  -0.05  -0.09     0.04   0.02  -0.06
  34   1    -0.09   0.02  -0.12    -0.03   0.02  -0.07    -0.03   0.03  -0.05
  35   1     0.06   0.01   0.04    -0.05   0.05  -0.07    -0.04   0.10  -0.02
  36   1    -0.04  -0.03   0.04     0.02   0.00  -0.08     0.02   0.03  -0.03
  37   1     0.01   0.00  -0.01    -0.01  -0.05   0.04     0.08   0.05   0.14
  38   1     0.02   0.01  -0.01    -0.06   0.01   0.04    -0.10   0.04   0.15
  39   1     0.06  -0.02   0.05    -0.10   0.01  -0.05    -0.06   0.08  -0.05
  40   1     0.06  -0.06  -0.03    -0.12   0.07   0.10    -0.03   0.15  -0.01
  41   1    -0.03  -0.00  -0.07     0.09  -0.03   0.20    -0.10  -0.01  -0.03
  42   1    -0.04   0.04   0.01     0.10  -0.16   0.02    -0.05   0.09  -0.01
  43   1     0.01  -0.00  -0.01    -0.05  -0.03   0.02     0.11   0.06  -0.16
  44   1     0.03  -0.01   0.01    -0.09  -0.02  -0.03     0.13  -0.11  -0.05
  45   1    -0.03  -0.02   0.02     0.07   0.03  -0.05    -0.04   0.00  -0.01
  46   1    -0.02  -0.03   0.04     0.04   0.06  -0.09     0.02  -0.00   0.04
  47   1    -0.03  -0.03   0.02     0.03   0.06  -0.06    -0.01   0.03   0.04
  48   1    -0.02  -0.03   0.03     0.01   0.06  -0.07    -0.01  -0.01   0.06
  49   1     0.01  -0.00   0.00    -0.04  -0.01  -0.02     0.02   0.01   0.01
  50   1     0.02  -0.01   0.02    -0.07  -0.00  -0.05     0.04   0.02   0.03
  51   1    -0.04  -0.01  -0.02     0.08   0.00   0.04     0.02   0.01   0.02
  52   1    -0.01   0.03  -0.05    -0.01  -0.09   0.12     0.05   0.02  -0.05
  53   1    -0.06  -0.00  -0.04     0.13  -0.01   0.10    -0.04   0.02  -0.03
                     19                     20                     21
                        a                      a                      a 
 Frequencies --   215.5827               233.6981               233.9485
 Red. masses --     8.7690                 2.2390                 2.1723
 Frc consts  --     0.0000                 0.0000                 0.0000
 IR Inten    --     0.0814                 0.0039                 0.0015
 Raman Activ --     0.0000                 0.0000                 0.0000
 Depolar     --     0.0000                 0.0000                 0.0000
 Atom AN      X      Y      Z        X      Y      Z        X      Y      Z
   1   6     0.20   0.13  -0.03     0.01  -0.02   0.00    -0.00   0.00  -0.05
   2   6    -0.19  -0.12   0.03    -0.01  -0.03  -0.03     0.04  -0.02   0.26
   3   6    -0.30  -0.04   0.06    -0.01  -0.02   0.02    -0.03   0.00  -0.13
   4   6    -0.10   0.08   0.01    -0.00  -0.01   0.01    -0.02   0.01  -0.10
   5   6     0.20  -0.12  -0.05     0.01  -0.01  -0.00     0.01  -0.01   0.02
   6   6     0.34  -0.05  -0.06     0.02   0.00  -0.00     0.01  -0.00   0.02
   7   6     0.16   0.07  -0.02     0.00   0.02   0.00     0.01   0.00  -0.01
   8   6    -0.15  -0.11   0.08    -0.01   0.02   0.00    -0.00  -0.00  -0.00
   9   6    -0.33   0.01   0.08    -0.01   0.02   0.01    -0.01   0.00   0.00
  10   6    -0.19   0.12  -0.07     0.00   0.03   0.01    -0.01   0.01  -0.00
  11   6     0.18  -0.13   0.04     0.03   0.02  -0.02     0.01  -0.00   0.00
  12   6    -0.02   0.01  -0.05     0.02  -0.00  -0.02     0.00   0.00  -0.00
  13   6     0.04  -0.01  -0.04    -0.00   0.01  -0.01     0.00  -0.00  -0.00
  14   6     0.01   0.03   0.00    -0.07   0.03   0.07    -0.01   0.00   0.01
  15   6     0.01   0.04  -0.00    -0.08   0.04   0.10    -0.01   0.01   0.01
  16   6     0.01   0.04   0.00     0.16  -0.13  -0.17     0.02  -0.01  -0.02
  17   6     0.05   0.02   0.03    -0.05   0.01   0.01    -0.00   0.00   0.00
  18   1     0.05   0.10  -0.01    -0.04  -0.04  -0.02     0.37   0.28   0.16
  19   1     0.07   0.11  -0.01     0.04   0.03  -0.03    -0.29  -0.30   0.26
  20   1     0.15  -0.03  -0.01     0.02  -0.01   0.06    -0.10   0.03  -0.54
  21   1    -0.05  -0.07   0.01    -0.01  -0.01  -0.01     0.11  -0.01   0.12
  22   1    -0.05  -0.07   0.00     0.00  -0.01  -0.02    -0.06  -0.01   0.15
  23   1    -0.08  -0.02   0.02     0.01  -0.00   0.01    -0.10  -0.03  -0.08
  24   1    -0.09  -0.02   0.02    -0.01  -0.01   0.01     0.06   0.04  -0.11
  25   1    -0.03   0.07   0.01     0.00   0.00   0.00    -0.02  -0.01  -0.04
  26   1    -0.02   0.06   0.00    -0.00  -0.00   0.00     0.00   0.02  -0.04
  27   1     0.06  -0.07  -0.01     0.00  -0.00  -0.00    -0.02  -0.02   0.02
  28   1     0.06  -0.07  -0.02    -0.00  -0.00  -0.00     0.03   0.01   0.02
  29   1     0.10  -0.02  -0.02     0.00   0.00  -0.00     0.00  -0.00   0.01
  30   1     0.09  -0.02  -0.02     0.00   0.00  -0.00     0.01   0.00   0.01
  31   1     0.05   0.05  -0.01     0.00   0.01   0.00     0.01   0.00  -0.01
  32   1     0.04   0.07  -0.01     0.00   0.01   0.00    -0.00   0.00  -0.01
  33   1    -0.06  -0.07   0.03    -0.00   0.00  -0.00    -0.00  -0.00  -0.00
  34   1    -0.03  -0.08   0.03    -0.00   0.00  -0.00    -0.00  -0.00  -0.00
  35   1    -0.07  -0.01   0.04    -0.00   0.01   0.00    -0.00   0.00   0.00
  36   1    -0.11   0.02   0.04    -0.00   0.00   0.00    -0.00   0.00   0.00
  37   1    -0.09   0.08  -0.05     0.01   0.01   0.01    -0.00   0.00  -0.00
  38   1    -0.01   0.08  -0.05    -0.00   0.01   0.01    -0.00   0.00  -0.00
  39   1     0.14  -0.00   0.12     0.01   0.01  -0.01     0.01   0.00   0.00
  40   1     0.09  -0.16  -0.04     0.01   0.00  -0.01     0.00  -0.00  -0.00
  41   1    -0.03  -0.00  -0.09     0.01   0.00  -0.00    -0.00  -0.00  -0.00
  42   1    -0.05   0.05   0.02     0.01  -0.01  -0.01    -0.00   0.00   0.00
  43   1     0.01   0.00  -0.03    -0.01   0.00  -0.02     0.00   0.00  -0.00
  44   1     0.02  -0.01  -0.01     0.02  -0.00   0.00     0.00  -0.00  -0.00
  45   1    -0.01   0.02  -0.00    -0.04   0.01   0.01    -0.00   0.00   0.00
  46   1     0.01   0.01   0.02    -0.01   0.01   0.03    -0.00   0.00   0.00
  47   1     0.00   0.01  -0.00    -0.10   0.07   0.00    -0.01   0.01   0.00
  48   1     0.00   0.01  -0.00    -0.01  -0.00   0.13    -0.00   0.00   0.02
  49   1     0.00   0.01  -0.00     0.07   0.00  -0.14     0.01   0.00  -0.02
  50   1     0.00   0.01  -0.00     0.10  -0.12  -0.03     0.01  -0.01  -0.00
  51   1     0.03   0.01   0.03    -0.17  -0.01  -0.47    -0.02  -0.00  -0.05
  52   1     0.03  -0.01  -0.00    -0.34   0.24   0.36    -0.04   0.03   0.04
  53   1     0.00   0.02   0.00     0.41  -0.18   0.17     0.05  -0.02   0.02
                     22                     23                     24
                        a                      a                      a 
 Frequencies --   259.1329               271.1705               318.4405
 Red. masses --     8.6869                 7.3296                 8.9057
 Frc consts  --     0.0000                 0.0000                 0.0000
 IR Inten    --     0.0365                 0.3310                 0.2650
 Raman Activ --     0.0000                 0.0000                 0.0000
 Depolar     --     0.0000                 0.0000                 0.0000
 Atom AN      X      Y      Z        X      Y      Z        X      Y      Z
   1   6     0.02  -0.22  -0.02    -0.05  -0.13   0.00     0.09   0.20  -0.01
   2   6     0.01  -0.20  -0.01     0.09  -0.03  -0.02    -0.23  -0.02   0.04
   3   6    -0.05  -0.12   0.00     0.07  -0.01  -0.01    -0.12  -0.11   0.01
   4   6    -0.02  -0.06  -0.00    -0.03  -0.05   0.01     0.17   0.04  -0.03
   5   6    -0.03   0.00   0.00    -0.12   0.03   0.02     0.25  -0.03  -0.04
   6   6     0.05   0.10  -0.01    -0.05   0.09  -0.00    -0.03  -0.19  -0.00
   7   6     0.03   0.16   0.01     0.07   0.03  -0.00    -0.27  -0.03   0.04
   8   6     0.03   0.19   0.03     0.14   0.07   0.04    -0.13   0.06   0.02
   9   6     0.00   0.22   0.00     0.07   0.11  -0.06     0.16  -0.11  -0.07
  10   6     0.04   0.25  -0.10    -0.05   0.08  -0.33     0.23  -0.04  -0.10
  11   6     0.21   0.09   0.03     0.04  -0.04   0.37    -0.07   0.17   0.18
  12   6     0.32  -0.06   0.07    -0.18   0.07   0.27     0.02   0.14   0.22
  13   6    -0.17   0.15   0.14     0.15  -0.14  -0.12     0.05   0.11  -0.15
  14   6    -0.07  -0.05  -0.02     0.03  -0.02  -0.03    -0.01   0.06  -0.11
  15   6    -0.03  -0.13  -0.02    -0.08   0.05  -0.05     0.05  -0.01   0.06
  16   6    -0.11  -0.17   0.03    -0.07   0.00  -0.07     0.00  -0.13   0.09
  17   6    -0.23  -0.13  -0.13     0.00  -0.04   0.02    -0.15  -0.07  -0.10
  18   1     0.00  -0.07  -0.00    -0.02  -0.07  -0.00     0.04   0.12   0.00
  19   1     0.00  -0.07  -0.00    -0.02  -0.07  -0.00     0.03   0.12   0.00
  20   1    -0.00  -0.06  -0.00    -0.05  -0.01   0.01     0.12  -0.01  -0.02
  21   1     0.00  -0.07  -0.00     0.02  -0.00  -0.01    -0.06  -0.02   0.01
  22   1     0.00  -0.07  -0.00     0.03  -0.00  -0.01    -0.06  -0.02   0.01
  23   1    -0.01  -0.03   0.00     0.02   0.01  -0.00    -0.04  -0.07   0.00
  24   1    -0.01  -0.03  -0.00     0.02   0.01  -0.00    -0.03  -0.07  -0.00
  25   1    -0.01  -0.02  -0.00    -0.01  -0.03   0.00     0.05   0.04  -0.01
  26   1    -0.01  -0.02   0.00    -0.01  -0.03   0.00     0.05   0.04  -0.01
  27   1    -0.01  -0.00   0.00    -0.04   0.01   0.01     0.07   0.01  -0.01
  28   1    -0.01  -0.00   0.00    -0.03   0.01   0.01     0.07   0.01  -0.01
  29   1     0.02   0.03  -0.00    -0.01   0.05  -0.00    -0.01  -0.10  -0.00
  30   1     0.01   0.03  -0.00    -0.02   0.04  -0.00    -0.01  -0.10  -0.00
  31   1     0.01   0.05  -0.00     0.02  -0.01  -0.01    -0.07  -0.00   0.01
  32   1     0.01   0.05   0.00     0.01   0.00  -0.01    -0.07  -0.00   0.01
  33   1     0.00   0.05   0.01     0.02   0.01   0.03    -0.04   0.05   0.01
  34   1     0.02   0.06   0.01     0.07   0.03   0.03    -0.03   0.06   0.01
  35   1     0.01   0.05   0.01     0.06  -0.00   0.01     0.04  -0.07  -0.02
  36   1    -0.01   0.08   0.01    -0.01   0.08   0.01     0.04  -0.06  -0.02
  37   1    -0.03   0.09  -0.06    -0.18  -0.03  -0.21     0.01  -0.05  -0.07
  38   1     0.05   0.10  -0.06     0.14   0.08  -0.22     0.11  -0.01  -0.06
  39   1     0.10   0.06  -0.01     0.06  -0.01   0.22    -0.10   0.00   0.00
  40   1     0.03  -0.01   0.03     0.03  -0.15   0.07    -0.06   0.11   0.09
  41   1     0.18   0.04   0.11    -0.12  -0.03   0.01     0.01   0.03   0.12
  42   1     0.13  -0.14  -0.01    -0.12   0.07   0.14     0.01  -0.03   0.06
  43   1    -0.10  -0.03   0.15     0.10   0.04  -0.15     0.04   0.07  -0.11
  44   1    -0.11   0.16   0.04     0.09  -0.19  -0.05     0.03  -0.06  -0.06
  45   1     0.02  -0.04   0.01    -0.02   0.01  -0.02    -0.03   0.00  -0.04
  46   1    -0.04  -0.02  -0.06     0.03   0.00   0.03    -0.01   0.01  -0.03
  47   1     0.01  -0.05  -0.00    -0.04   0.03  -0.02     0.03   0.02   0.03
  48   1     0.00  -0.03  -0.02    -0.04  -0.00   0.00     0.03   0.00   0.03
  49   1    -0.02  -0.05   0.02    -0.03  -0.01  -0.03     0.01  -0.03   0.03
  50   1    -0.04  -0.03   0.01    -0.02  -0.01  -0.02     0.00  -0.03   0.03
  51   1    -0.09  -0.05  -0.02     0.01  -0.00   0.00    -0.08  -0.04  -0.05
  52   1    -0.03   0.00  -0.08    -0.01  -0.04   0.02    -0.02   0.05  -0.05
  53   1    -0.12  -0.04  -0.06     0.02  -0.01   0.02    -0.08  -0.04  -0.05
                     25                     26                     27
                        a                      a                      a 
 Frequencies --   340.2371               378.8571               408.2753
 Red. masses --     8.9940                 9.7387                 9.1246
 Frc consts  --     0.0000                 0.0000                 0.0000
 IR Inten    --     0.0521                 0.0080                 0.1237
 Raman Activ --     0.0000                 0.0000                 0.0000
 Depolar     --     0.0000                 0.0000                 0.0000
 Atom AN      X      Y      Z        X      Y      Z        X      Y      Z
   1   6     0.07  -0.03  -0.01    -0.04   0.19   0.02     0.02   0.30   0.01
   2   6    -0.13  -0.14   0.02     0.04   0.20   0.00    -0.21   0.09   0.04
   3   6    -0.11  -0.12   0.01     0.12   0.07  -0.02     0.11  -0.19  -0.03
   4   6     0.13   0.05  -0.02    -0.09  -0.13   0.01     0.19  -0.20  -0.04
   5   6     0.14   0.08  -0.01    -0.07  -0.21  -0.00    -0.04  -0.07   0.00
   6   6    -0.02   0.02   0.01     0.01  -0.19  -0.01    -0.20  -0.14   0.02
   7   6    -0.16   0.13   0.03     0.07  -0.22  -0.02    -0.04  -0.19  -0.01
   8   6    -0.04   0.20   0.01     0.03  -0.18  -0.01     0.27   0.05  -0.03
   9   6     0.17   0.04  -0.02    -0.14   0.02   0.02     0.03   0.27   0.01
  10   6     0.13  -0.01  -0.03    -0.00   0.17   0.03    -0.17   0.20  -0.01
  11   6    -0.00   0.03  -0.08     0.05   0.20  -0.01     0.07   0.01   0.02
  12   6    -0.06  -0.01  -0.09     0.14   0.21   0.04    -0.02  -0.13  -0.06
  13   6     0.10  -0.16   0.28     0.26   0.10   0.15    -0.15  -0.06  -0.04
  14   6     0.09  -0.17   0.24     0.16  -0.01   0.15    -0.11  -0.09  -0.03
  15   6    -0.22   0.00  -0.19    -0.13   0.06  -0.15    -0.01  -0.09   0.05
  16   6    -0.20   0.13  -0.27    -0.23  -0.10  -0.15     0.08   0.10   0.01
  17   6     0.11  -0.03   0.13    -0.17  -0.19  -0.04     0.14   0.11   0.05
  18   1     0.02   0.03  -0.00    -0.01   0.05   0.01     0.01   0.15   0.01
  19   1     0.02   0.03  -0.00    -0.01   0.05   0.00     0.01   0.16   0.01
  20   1     0.07  -0.04  -0.02    -0.02   0.06   0.01     0.10   0.02  -0.02
  21   1    -0.04  -0.06   0.01     0.01   0.08   0.00    -0.05   0.04   0.01
  22   1    -0.04  -0.06   0.00     0.01   0.08   0.00    -0.06   0.04   0.01
  23   1    -0.03  -0.06   0.00     0.03   0.03  -0.00     0.03  -0.10  -0.01
  24   1    -0.03  -0.06  -0.00     0.03   0.03  -0.00     0.03  -0.10  -0.01
  25   1     0.03   0.04  -0.01    -0.02  -0.06   0.00     0.05  -0.08  -0.01
  26   1     0.04   0.04  -0.00    -0.03  -0.06   0.00     0.05  -0.08  -0.01
  27   1     0.04   0.04  -0.00    -0.02  -0.08  -0.00    -0.01   0.01   0.00
  28   1     0.04   0.04  -0.00    -0.02  -0.08  -0.00    -0.01   0.01   0.00
  29   1    -0.01  -0.02   0.00     0.00  -0.05  -0.00    -0.06  -0.05   0.00
  30   1    -0.01  -0.02   0.00     0.00  -0.05  -0.00    -0.05  -0.04   0.01
  31   1    -0.05   0.05   0.01     0.02  -0.07  -0.01    -0.01  -0.10  -0.01
  32   1    -0.04   0.04   0.01     0.02  -0.07  -0.01    -0.01  -0.10  -0.01
  33   1    -0.01   0.09   0.00     0.01  -0.08  -0.00     0.07   0.02  -0.00
  34   1    -0.01   0.09   0.00     0.01  -0.08  -0.01     0.07   0.02  -0.01
  35   1     0.05  -0.01  -0.01    -0.04   0.02   0.00     0.02   0.12   0.01
  36   1     0.05  -0.00  -0.01    -0.03   0.01  -0.00     0.00   0.13   0.01
  37   1     0.04  -0.02  -0.01     0.01   0.08   0.02    -0.06   0.06  -0.01
  38   1     0.03  -0.03  -0.01    -0.01   0.07   0.02    -0.03   0.07  -0.01
  39   1    -0.02   0.00  -0.04     0.00   0.05  -0.02     0.10   0.05   0.04
  40   1     0.01   0.04  -0.03     0.00   0.07   0.01     0.04  -0.07  -0.03
  41   1    -0.07  -0.03  -0.08     0.02   0.04   0.01     0.01  -0.02  -0.01
  42   1    -0.03   0.09  -0.01     0.05   0.09   0.00    -0.01  -0.06  -0.01
  43   1     0.04  -0.05   0.12     0.10   0.05   0.04    -0.07  -0.05   0.02
  44   1     0.04   0.01   0.10     0.10   0.03   0.05    -0.06   0.02  -0.01
  45   1     0.07  -0.01   0.09     0.06   0.02   0.05    -0.04  -0.04  -0.01
  46   1     0.06  -0.03   0.08     0.07   0.01   0.05    -0.05  -0.03  -0.02
  47   1    -0.11  -0.04  -0.08    -0.05   0.00  -0.05    -0.01  -0.03   0.01
  48   1    -0.11  -0.03  -0.08    -0.05   0.00  -0.04    -0.01  -0.03   0.01
  49   1    -0.08   0.02  -0.08    -0.09  -0.04  -0.05     0.03   0.04   0.01
  50   1    -0.07   0.02  -0.08    -0.09  -0.04  -0.05     0.04   0.04   0.01
  51   1     0.10   0.03   0.07    -0.04  -0.05  -0.01     0.05   0.04   0.02
  52   1    -0.01  -0.14   0.08    -0.06  -0.07  -0.00     0.03   0.00   0.03
  53   1     0.10   0.03   0.07    -0.04  -0.05  -0.01     0.06   0.04   0.02
                     28                     29                     30
                        a                      a                      a 
 Frequencies --   442.2323               488.1185               496.1806
 Red. masses --     9.0873                 9.1696                 9.0617
 Frc consts  --     0.0000                 0.0000                 0.0000
 IR Inten    --     0.4688                 0.1855                 0.0711
 Raman Activ --     0.0000                 0.0000                 0.0000
 Depolar     --     0.0000                 0.0000                 0.0000
 Atom AN      X      Y      Z        X      Y      Z        X      Y      Z
   1   6     0.04   0.00  -0.01     0.03  -0.11  -0.01    -0.02   0.21   0.01
   2   6    -0.16  -0.12   0.02    -0.06  -0.12   0.00    -0.16   0.04   0.03
   3   6    -0.02  -0.16  -0.01    -0.08  -0.02   0.01     0.21  -0.25  -0.05
   4   6     0.23   0.04  -0.03     0.17   0.19  -0.02     0.06  -0.33  -0.03
   5   6    -0.04   0.26   0.02     0.00   0.31   0.02    -0.29  -0.02   0.04
   6   6    -0.19   0.18   0.04    -0.19   0.14   0.03     0.13   0.30  -0.00
   7   6     0.07  -0.03  -0.01     0.15  -0.19  -0.03     0.20   0.28  -0.01
   8   6     0.15  -0.04  -0.02     0.04  -0.31  -0.02    -0.21  -0.00   0.02
   9   6    -0.03   0.03   0.03    -0.18  -0.14   0.01    -0.06  -0.17  -0.01
  10   6    -0.22  -0.11   0.07     0.03   0.04   0.01     0.14  -0.11  -0.01
  11   6    -0.06  -0.20  -0.09     0.05   0.11   0.05    -0.01   0.00   0.01
  12   6     0.01   0.01  -0.04     0.13   0.18   0.08     0.01   0.05   0.04
  13   6     0.15  -0.02   0.10     0.03   0.20  -0.12     0.01   0.05  -0.03
  14   6     0.19   0.24   0.02    -0.10  -0.20   0.00    -0.02  -0.04  -0.00
  15   6     0.11   0.24  -0.05    -0.12  -0.21   0.01    -0.03  -0.05   0.00
  16   6    -0.04  -0.18   0.07    -0.04   0.10  -0.10    -0.01   0.02  -0.02
  17   6    -0.21  -0.16  -0.09     0.10   0.07   0.05     0.02   0.02   0.01
  18   1     0.02   0.04   0.00     0.01  -0.02  -0.00     0.00   0.12   0.01
  19   1     0.02   0.04  -0.00     0.01  -0.02  -0.00     0.00   0.12   0.00
  20   1     0.07  -0.04  -0.02     0.02  -0.04  -0.01     0.08   0.00  -0.01
  21   1    -0.04  -0.04   0.01    -0.02  -0.05   0.00    -0.04   0.04   0.01
  22   1    -0.04  -0.04   0.00    -0.02  -0.05   0.00    -0.04   0.04   0.01
  23   1    -0.01  -0.09  -0.00    -0.02  -0.03   0.00     0.05  -0.11  -0.02
  24   1    -0.00  -0.09  -0.01    -0.02  -0.03  -0.00     0.05  -0.11  -0.01
  25   1     0.06   0.01  -0.01     0.04   0.07  -0.01     0.02  -0.16  -0.01
  26   1     0.06   0.01  -0.01     0.05   0.07  -0.00     0.01  -0.16  -0.01
  27   1    -0.01   0.13   0.01     0.00   0.14   0.01    -0.07  -0.01   0.01
  28   1    -0.01   0.13   0.01     0.00   0.14   0.01    -0.07  -0.01   0.01
  29   1    -0.05   0.07   0.01    -0.05   0.06   0.01     0.04   0.15   0.00
  30   1    -0.05   0.07   0.01    -0.05   0.06   0.01     0.03   0.15   0.00
  31   1     0.02  -0.04  -0.01     0.04  -0.09  -0.01     0.05   0.13   0.00
  32   1     0.02  -0.04  -0.01     0.04  -0.09  -0.01     0.06   0.13  -0.00
  33   1     0.04  -0.02  -0.01     0.01  -0.14  -0.00    -0.06  -0.02   0.00
  34   1     0.03  -0.03  -0.01     0.01  -0.14  -0.01    -0.05  -0.02   0.01
  35   1    -0.01   0.05   0.01    -0.05  -0.04   0.00    -0.02  -0.09  -0.01
  36   1    -0.01   0.04   0.01    -0.04  -0.05  -0.00    -0.01  -0.10  -0.01
  37   1    -0.01  -0.02   0.06     0.00   0.04   0.00     0.03  -0.03  -0.01
  38   1    -0.11  -0.05   0.05     0.01   0.04   0.00     0.04  -0.03  -0.01
  39   1     0.03  -0.04   0.03    -0.02   0.01  -0.00    -0.06  -0.03  -0.03
  40   1     0.00  -0.11  -0.05    -0.01   0.05   0.04    -0.02   0.05   0.02
  41   1    -0.02  -0.01  -0.07     0.09   0.08   0.09     0.01   0.02   0.02
  42   1     0.00   0.09  -0.01     0.06  -0.04   0.00     0.01  -0.00   0.01
  43   1     0.04   0.00   0.01     0.04   0.09  -0.06     0.01   0.03  -0.02
  44   1     0.04  -0.02   0.02     0.04   0.02  -0.03     0.01  -0.01  -0.01
  45   1     0.07   0.09   0.02    -0.06  -0.08  -0.02    -0.01  -0.02  -0.00
  46   1     0.09   0.09   0.03    -0.06  -0.08  -0.02    -0.01  -0.02  -0.01
  47   1     0.06   0.08   0.00    -0.07  -0.07  -0.01    -0.01  -0.01  -0.00
  48   1     0.06   0.09   0.00    -0.07  -0.08  -0.01    -0.02  -0.02  -0.00
  49   1    -0.03  -0.06   0.01    -0.00   0.03  -0.02    -0.00   0.01  -0.00
  50   1    -0.03  -0.06   0.01     0.00   0.03  -0.02     0.00   0.01  -0.00
  51   1    -0.10  -0.07  -0.05     0.07   0.04   0.04     0.01   0.01   0.01
  52   1    -0.03   0.04  -0.06     0.01  -0.06   0.04     0.00  -0.01   0.01
  53   1    -0.11  -0.07  -0.05     0.07   0.04   0.03     0.01   0.01   0.01
                     31                     32                     33
                        a                      a                      a 
 Frequencies --   557.5975               766.9255               768.5647
 Red. masses --     8.2667                 2.1467                 1.5995
 Frc consts  --     0.0000                 0.0000                 0.0000
 IR Inten    --     0.0848                 6.1103                18.4864
 Raman Activ --     0.0000                 0.0000                 0.0000
 Depolar     --     0.0000                 0.0000                 0.0000
 Atom AN      X      Y      Z        X      Y      Z        X      Y      Z
   1   6    -0.01   0.02   0.00    -0.00   0.00  -0.00    -0.00   0.00  -0.00
   2   6     0.02   0.02  -0.00    -0.00   0.00  -0.01    -0.01   0.00  -0.05
   3   6     0.01   0.01  -0.00    -0.00   0.00  -0.02    -0.02   0.01  -0.08
   4   6    -0.05  -0.04   0.01    -0.00  -0.00  -0.01    -0.02   0.00  -0.11
   5   6     0.03  -0.09  -0.01     0.00  -0.01  -0.00    -0.02   0.01  -0.12
   6   6     0.05  -0.05  -0.01     0.00  -0.00   0.02    -0.01   0.00  -0.10
   7   6    -0.11   0.11   0.02    -0.01   0.01   0.06    -0.01   0.01  -0.06
   8   6     0.06   0.20   0.01     0.03   0.02   0.08     0.00   0.00  -0.03
   9   6     0.11   0.09   0.03    -0.01   0.01   0.11    -0.00   0.00  -0.00
  10   6    -0.28  -0.24   0.06    -0.07  -0.07   0.09    -0.01  -0.01   0.01
  11   6    -0.10  -0.33  -0.07     0.02  -0.08   0.07     0.00  -0.01   0.01
  12   6     0.19   0.23   0.11     0.10  -0.00  -0.01     0.02   0.00   0.00
  13   6     0.14   0.31  -0.12     0.09   0.05  -0.08     0.02   0.01  -0.02
  14   6    -0.02  -0.11  -0.01     0.05  -0.04  -0.09     0.01  -0.01  -0.02
  15   6    -0.08  -0.14   0.00     0.04  -0.07  -0.04     0.01  -0.02  -0.01
  16   6    -0.06   0.05  -0.08     0.02  -0.01  -0.04     0.01  -0.01  -0.01
  17   6     0.02   0.02   0.01     0.00   0.00  -0.00     0.00  -0.00  -0.00
  18   1    -0.00   0.00   0.00     0.01  -0.01   0.00     0.04  -0.03   0.02
  19   1    -0.00   0.00   0.00    -0.01   0.01   0.01    -0.03   0.03   0.03
  20   1    -0.01   0.01   0.00     0.00   0.00   0.00     0.00  -0.00   0.01
  21   1     0.01   0.01  -0.00     0.03   0.00   0.01     0.14   0.02   0.06
  22   1     0.01   0.01  -0.00    -0.02  -0.01   0.02    -0.11  -0.03   0.10
  23   1     0.00   0.01   0.00     0.04  -0.00   0.02     0.24  -0.04   0.10
  24   1     0.00   0.01   0.00    -0.03   0.00   0.03    -0.19   0.02   0.18
  25   1    -0.01  -0.01   0.00     0.03  -0.01   0.01     0.30  -0.01   0.13
  26   1    -0.01  -0.01   0.00    -0.03   0.01   0.02    -0.25  -0.02   0.22
  27   1     0.01  -0.04  -0.00     0.01  -0.02  -0.01    -0.26  -0.00   0.22
  28   1     0.01  -0.04  -0.00    -0.01   0.01  -0.00     0.31  -0.01   0.14
  29   1     0.01  -0.03  -0.00     0.06   0.02  -0.05    -0.22   0.02   0.19
  30   1     0.01  -0.03  -0.00    -0.08  -0.02  -0.04     0.26  -0.04   0.12
  31   1    -0.03   0.04   0.00     0.13  -0.02  -0.11    -0.16  -0.03   0.13
  32   1    -0.03   0.04   0.01    -0.16   0.04  -0.07     0.18   0.02   0.09
  33   1     0.02   0.10   0.00     0.20   0.03  -0.16    -0.07   0.03   0.07
  34   1     0.01   0.09   0.00    -0.22   0.01  -0.11     0.09  -0.03   0.04
  35   1     0.04   0.08   0.01    -0.25   0.04  -0.12     0.02   0.02   0.01
  36   1     0.02   0.06   0.02     0.22   0.02  -0.17    -0.02  -0.01   0.02
  37   1     0.02  -0.07   0.09    -0.18   0.04  -0.09    -0.01  -0.00  -0.00
  38   1    -0.17  -0.13   0.09     0.14  -0.04  -0.10     0.01  -0.00  -0.00
  39   1     0.03  -0.08   0.10    -0.05  -0.02  -0.12    -0.01  -0.00  -0.02
  40   1    -0.03  -0.23  -0.04    -0.07   0.08   0.10    -0.01   0.01   0.02
  41   1     0.15   0.14   0.09    -0.03  -0.01  -0.14    -0.00  -0.00  -0.02
  42   1     0.12  -0.03  -0.03    -0.06   0.09   0.07    -0.01   0.01   0.01
  43   1     0.10   0.16  -0.11     0.01  -0.05   0.17     0.00  -0.01   0.04
  44   1     0.10  -0.02  -0.03    -0.12   0.16  -0.05    -0.03   0.04  -0.01
  45   1    -0.04  -0.07  -0.02    -0.16   0.22  -0.06    -0.04   0.06  -0.01
  46   1    -0.03  -0.05  -0.03    -0.05  -0.12   0.23    -0.01  -0.03   0.06
  47   1    -0.05  -0.05  -0.01    -0.11   0.20  -0.03    -0.03   0.06  -0.01
  48   1    -0.05  -0.06  -0.01    -0.06  -0.11   0.20    -0.02  -0.03   0.06
  49   1    -0.01   0.02  -0.02    -0.00  -0.04   0.13    -0.00  -0.01   0.04
  50   1    -0.01   0.02  -0.02    -0.09   0.11  -0.04    -0.03   0.03  -0.01
  51   1     0.03   0.02   0.02    -0.02  -0.02   0.03    -0.01  -0.01   0.01
  52   1    -0.01  -0.05   0.02    -0.01  -0.01   0.01    -0.00  -0.00   0.00
  53   1     0.03   0.02   0.02     0.01   0.05   0.01     0.00   0.02   0.00
                     34                     35                     36
                        a                      a                      a 
 Frequencies --   769.9442               774.8588               785.1069
 Red. masses --     1.7198                 2.0573                 2.6040
 Frc consts  --     0.0000                 0.0000                 0.0000
 IR Inten    --     6.3265                 5.6294                 0.2181
 Raman Activ --     0.0000                 0.0000                 0.0000
 Depolar     --     0.0000                 0.0000                 0.0000
 Atom AN      X      Y      Z        X      Y      Z        X      Y      Z
   1   6    -0.00   0.00  -0.00    -0.00   0.00  -0.01    -0.00   0.00  -0.01
   2   6    -0.01   0.00  -0.05    -0.02   0.00  -0.10    -0.01   0.01  -0.08
   3   6    -0.01   0.01  -0.08    -0.02   0.01  -0.11    -0.01   0.00  -0.05
   4   6    -0.01   0.00  -0.07    -0.00   0.00  -0.03     0.01  -0.00   0.04
   5   6    -0.00   0.00  -0.02     0.01  -0.00   0.07     0.02  -0.01   0.08
   6   6     0.01  -0.00   0.04     0.02  -0.00   0.11    -0.00  -0.01   0.03
   7   6     0.01  -0.01   0.08     0.01  -0.01   0.07    -0.02   0.01  -0.05
   8   6     0.01  -0.00   0.09    -0.02  -0.02  -0.03     0.02   0.03  -0.09
   9   6     0.01  -0.01   0.07     0.01  -0.01  -0.11    -0.03   0.03  -0.02
  10   6     0.01   0.01   0.03     0.04   0.04  -0.10    -0.06  -0.06   0.05
  11   6     0.00  -0.00  -0.03    -0.03   0.07  -0.03     0.05  -0.10   0.09
  12   6    -0.02  -0.01  -0.02    -0.06   0.01   0.03     0.16  -0.02   0.03
  13   6    -0.04   0.00   0.04    -0.03  -0.04   0.02     0.11   0.04  -0.10
  14   6    -0.06   0.04   0.07     0.03  -0.02  -0.01    -0.00  -0.01  -0.08
  15   6    -0.06   0.05   0.06     0.04  -0.01  -0.05    -0.06  -0.01   0.07
  16   6    -0.04   0.03   0.05     0.04  -0.03  -0.03    -0.09   0.06   0.07
  17   6    -0.00   0.00   0.00     0.00  -0.00  -0.00    -0.01   0.01   0.01
  18   1     0.04  -0.04   0.02     0.07  -0.08   0.03     0.06  -0.06   0.02
  19   1    -0.03   0.04   0.04    -0.06   0.07   0.07    -0.04   0.06   0.05
  20   1     0.00  -0.00   0.02     0.01  -0.00   0.03     0.00  -0.00   0.03
  21   1     0.14   0.02   0.06     0.24   0.02   0.09     0.16  -0.00   0.06
  22   1    -0.11  -0.03   0.10    -0.19  -0.03   0.17    -0.13  -0.01   0.11
  23   1     0.19  -0.01   0.08     0.24   0.01   0.10     0.09   0.04   0.04
  24   1    -0.15   0.00   0.14    -0.19  -0.03   0.17    -0.08  -0.04   0.06
  25   1     0.16  -0.03   0.07     0.07  -0.07   0.03    -0.07  -0.04  -0.03
  26   1    -0.13   0.02   0.11    -0.06   0.07   0.05     0.06   0.05  -0.04
  27   1    -0.04  -0.04   0.03     0.12  -0.05  -0.10     0.13  -0.00  -0.10
  28   1     0.05   0.04   0.02    -0.14   0.06  -0.06    -0.15   0.00  -0.06
  29   1     0.08   0.04  -0.06     0.20   0.00  -0.16     0.05  -0.05  -0.04
  30   1    -0.09  -0.03  -0.04    -0.24   0.02  -0.10    -0.06   0.05  -0.02
  31   1     0.16  -0.02  -0.13     0.13   0.05  -0.10    -0.09   0.04   0.07
  32   1    -0.19   0.03  -0.09    -0.15  -0.04  -0.07     0.10  -0.05   0.04
  33   1     0.19  -0.00  -0.15    -0.06  -0.07   0.03    -0.13   0.02   0.11
  34   1    -0.22   0.02  -0.11     0.05   0.05   0.03     0.17  -0.01   0.07
  35   1    -0.17  -0.01  -0.09     0.21  -0.06   0.09     0.06   0.07   0.04
  36   1     0.15   0.02  -0.12    -0.18   0.01   0.14    -0.07  -0.01   0.05
  37   1    -0.07   0.04  -0.04     0.17  -0.05   0.08    -0.05  -0.02  -0.01
  38   1     0.07  -0.03  -0.05    -0.15   0.04   0.10     0.02   0.02  -0.01
  39   1     0.01   0.00   0.01     0.03   0.01   0.10    -0.08  -0.03  -0.20
  40   1     0.02  -0.00  -0.02     0.04  -0.07  -0.06    -0.13   0.12   0.17
  41   1     0.01   0.01   0.02     0.01  -0.00   0.10    -0.06  -0.03  -0.24
  42   1     0.02  -0.02  -0.03     0.04  -0.06  -0.04    -0.12   0.16   0.14
  43   1    -0.01   0.04  -0.14     0.01  -0.00   0.02    -0.01  -0.07   0.14
  44   1     0.11  -0.10   0.04    -0.03  -0.01  -0.00    -0.10   0.15  -0.05
  45   1     0.12  -0.22   0.04    -0.02   0.09  -0.00    -0.12   0.02  -0.07
  46   1     0.05   0.11  -0.22    -0.02  -0.05   0.08     0.01  -0.01   0.08
  47   1     0.13  -0.23   0.05    -0.08   0.13  -0.03     0.13  -0.12   0.06
  48   1     0.05   0.12  -0.24    -0.01  -0.05   0.14    -0.03   0.02  -0.17
  49   1     0.01   0.06  -0.18    -0.01  -0.05   0.13     0.03   0.11  -0.25
  50   1     0.12  -0.14   0.05    -0.08   0.11  -0.03     0.14  -0.22   0.06
  51   1     0.04   0.04  -0.04    -0.04  -0.04   0.03     0.10   0.09  -0.06
  52   1     0.01  -0.01  -0.01    -0.01   0.01   0.01     0.03  -0.03  -0.03
  53   1    -0.01  -0.07  -0.01     0.00   0.06   0.01    -0.01  -0.13  -0.02
                     37                     38                     39
                        a                      a                      a 
 Frequencies --   794.6728               803.7183               828.8395
 Red. masses --     2.3453                 2.7472                 2.9650
 Frc consts  --     0.0000                 0.0000                 0.0000
 IR Inten    --     0.6146                 2.9828                 1.4434
 Raman Activ --     0.0000                 0.0000                 0.0000
 Depolar     --     0.0000                 0.0000                 0.0000
 Atom AN      X      Y      Z        X      Y      Z        X      Y      Z
   1   6    -0.01   0.00  -0.02    -0.00   0.00  -0.02     0.01  -0.00   0.06
   2   6    -0.02   0.01  -0.12    -0.01   0.00  -0.07     0.02  -0.01   0.14
   3   6    -0.01   0.00  -0.04     0.00  -0.00  -0.00    -0.01   0.00  -0.08
   4   6     0.02  -0.01   0.10     0.01  -0.00   0.07    -0.02   0.01  -0.15
   5   6     0.02  -0.01   0.10    -0.00   0.01   0.04     0.01  -0.00   0.07
   6   6    -0.01   0.00  -0.03     0.00   0.01  -0.05     0.02  -0.01   0.16
   7   6    -0.02   0.01  -0.12    -0.01   0.00  -0.06    -0.02   0.01  -0.06
   8   6     0.01   0.01  -0.05    -0.03  -0.03   0.03    -0.01   0.01  -0.16
   9   6    -0.01   0.01   0.10     0.07  -0.07   0.07     0.02  -0.02   0.05
  10   6    -0.00  -0.02   0.11    -0.00   0.01   0.03    -0.03  -0.05   0.17
  11   6     0.03  -0.05  -0.03    -0.13   0.16  -0.00    -0.03   0.01   0.04
  12   6    -0.01  -0.01  -0.05    -0.15   0.04  -0.11    -0.05  -0.01  -0.13
  13   6    -0.07   0.03   0.07     0.04  -0.03  -0.06     0.01   0.04  -0.02
  14   6    -0.05   0.04   0.08     0.13  -0.07  -0.02     0.04  -0.01   0.04
  15   6     0.02  -0.00  -0.03     0.01   0.04  -0.01     0.01   0.02  -0.00
  16   6     0.07  -0.05  -0.08    -0.07   0.05   0.07    -0.01   0.01  -0.00
  17   6     0.01  -0.01  -0.02    -0.02   0.00   0.02    -0.01  -0.01   0.00
  18   1     0.09  -0.10   0.04     0.05  -0.06   0.02    -0.12   0.15  -0.05
  19   1    -0.07   0.09   0.08    -0.04   0.06   0.04     0.09  -0.14  -0.10
  20   1     0.01  -0.00   0.05     0.01  -0.00   0.03    -0.01   0.00  -0.08
  21   1     0.21  -0.02   0.08     0.11  -0.02   0.04    -0.20   0.08  -0.06
  22   1    -0.17   0.00   0.15    -0.09   0.01   0.08     0.16  -0.07  -0.14
  23   1     0.07   0.08   0.03     0.01   0.05   0.00     0.10  -0.12   0.03
  24   1    -0.05  -0.08   0.04    -0.01  -0.05   0.00    -0.09   0.11   0.07
  25   1    -0.16  -0.04  -0.06    -0.11  -0.01  -0.04     0.20  -0.07   0.07
  26   1     0.14   0.05  -0.11     0.09   0.01  -0.07    -0.17   0.06   0.13
  27   1     0.14   0.05  -0.11     0.05   0.05  -0.03     0.07  -0.12  -0.06
  28   1    -0.17  -0.04  -0.07    -0.06  -0.04  -0.02    -0.09   0.12  -0.03
  29   1    -0.05  -0.08   0.03    -0.07  -0.03   0.05     0.18  -0.05  -0.13
  30   1     0.06   0.08   0.03     0.08   0.04   0.03    -0.20   0.06  -0.07
  31   1    -0.17   0.00   0.13    -0.08  -0.02   0.06    -0.06   0.12   0.05
  32   1     0.20  -0.02   0.08     0.09   0.03   0.04     0.07  -0.12   0.02
  33   1    -0.06   0.08   0.05     0.03   0.05  -0.02    -0.18   0.05   0.13
  34   1     0.07  -0.08   0.03    -0.05  -0.06  -0.02     0.21  -0.05   0.08
  35   1    -0.15   0.08  -0.06    -0.11  -0.03  -0.06    -0.05   0.13  -0.02
  36   1     0.13  -0.05  -0.10     0.13  -0.04  -0.08     0.05  -0.13  -0.04
  37   1    -0.17   0.06  -0.08    -0.07  -0.00  -0.04    -0.22   0.02  -0.10
  38   1     0.16  -0.03  -0.10     0.05  -0.07  -0.05     0.19  -0.04  -0.12
  39   1    -0.01  -0.01  -0.06     0.09   0.05   0.32     0.01   0.00   0.05
  40   1     0.01   0.05  -0.00     0.16  -0.16  -0.20     0.07   0.02  -0.05
  41   1     0.04   0.03  -0.02     0.04   0.00   0.30     0.05   0.03   0.07
  42   1     0.01  -0.01  -0.03     0.15  -0.20  -0.19     0.06  -0.08  -0.09
  43   1    -0.01   0.07  -0.18     0.05  -0.03   0.16     0.02   0.02   0.00
  44   1     0.13  -0.13   0.05    -0.09   0.12  -0.03     0.03   0.03   0.01
  45   1     0.14  -0.12   0.06    -0.09   0.16  -0.03     0.02   0.01   0.01
  46   1    -0.01   0.05  -0.17     0.03  -0.07   0.21     0.01  -0.00   0.02
  47   1    -0.09   0.01  -0.04     0.07   0.05   0.03     0.00   0.01  -0.00
  48   1     0.05   0.02   0.08    -0.06  -0.03  -0.04    -0.00  -0.00   0.00
  49   1    -0.03  -0.10   0.19     0.03   0.09  -0.16    -0.00   0.00  -0.01
  50   1    -0.10   0.19  -0.05     0.07  -0.17   0.03    -0.00  -0.01  -0.00
  51   1    -0.09  -0.09   0.05     0.08   0.08  -0.05     0.00   0.00  -0.00
  52   1    -0.03   0.02   0.03     0.03  -0.01  -0.04     0.00  -0.00  -0.00
  53   1     0.02   0.13   0.02    -0.03  -0.13  -0.02    -0.00  -0.01  -0.00
                     40                     41                     42
                        a                      a                      a 
 Frequencies --   862.0873               871.8387               916.4141
 Red. masses --     3.6622                 3.4789                 4.2958
 Frc consts  --     0.0000                 0.0000                 0.0000
 IR Inten    --     2.3729                 0.8745                 0.8456
 Raman Activ --     0.0000                 0.0000                 0.0000
 Depolar     --     0.0000                 0.0000                 0.0000
 Atom AN      X      Y      Z        X      Y      Z        X      Y      Z
   1   6    -0.00  -0.00  -0.00     0.01  -0.01   0.08     0.02   0.00   0.09
   2   6    -0.00  -0.00  -0.01     0.01  -0.01   0.09     0.01  -0.00   0.02
   3   6     0.00  -0.00   0.01    -0.03   0.01  -0.17    -0.03   0.00  -0.16
   4   6    -0.00  -0.00   0.00    -0.00   0.00  -0.02     0.02  -0.01   0.13
   5   6    -0.01   0.01  -0.01     0.02  -0.00   0.18     0.02  -0.01   0.04
   6   6     0.01   0.01  -0.00    -0.01   0.00  -0.07    -0.03   0.01  -0.16
   7   6    -0.01   0.01   0.01    -0.01  -0.01  -0.15     0.00   0.01   0.12
   8   6    -0.02  -0.02  -0.00    -0.01  -0.02   0.14     0.04   0.02   0.05
   9   6     0.07  -0.06  -0.02     0.02  -0.01   0.08    -0.06   0.02  -0.16
  10   6    -0.09  -0.04   0.02     0.04   0.07  -0.19    -0.03  -0.08   0.11
  11   6    -0.10   0.14   0.14    -0.00   0.03  -0.09     0.03  -0.06   0.18
  12   6     0.07  -0.02  -0.09     0.06   0.03   0.16    -0.10  -0.08  -0.21
  13   6     0.20   0.00  -0.19     0.00  -0.07   0.02    -0.01   0.13  -0.08
  14   6    -0.04   0.04   0.05    -0.05   0.02  -0.06     0.09  -0.03   0.12
  15   6    -0.13   0.06   0.16    -0.02  -0.01   0.01     0.04   0.03   0.01
  16   6     0.07  -0.05  -0.12     0.01  -0.01   0.00    -0.01   0.03  -0.03
  17   6     0.05  -0.05  -0.08     0.01   0.01  -0.00    -0.03  -0.03  -0.01
  18   1     0.01  -0.01   0.00    -0.13   0.17  -0.04    -0.12   0.16  -0.03
  19   1    -0.01   0.01   0.01     0.10  -0.16  -0.10     0.09  -0.15  -0.09
  20   1     0.00  -0.00   0.00    -0.01   0.00  -0.09    -0.02   0.01  -0.08
  21   1     0.01  -0.01   0.00    -0.11   0.14  -0.03    -0.02   0.17   0.00
  22   1    -0.01   0.01   0.01     0.09  -0.13  -0.08     0.01  -0.17  -0.02
  23   1    -0.01   0.00  -0.00     0.19  -0.06   0.05     0.16   0.05   0.04
  24   1     0.01  -0.00  -0.01    -0.16   0.05   0.12    -0.14  -0.06   0.09
  25   1    -0.00   0.01  -0.00     0.01  -0.15  -0.00    -0.13  -0.10  -0.04
  26   1     0.00  -0.01  -0.00    -0.01   0.15   0.02     0.11   0.11  -0.07
  27   1    -0.01   0.00   0.01     0.17   0.02  -0.12     0.04   0.16  -0.01
  28   1     0.01  -0.00   0.00    -0.20  -0.01  -0.06    -0.04  -0.16  -0.02
  29   1     0.00   0.01   0.00    -0.07  -0.14   0.04    -0.14   0.04   0.09
  30   1     0.00  -0.00  -0.00     0.08   0.14   0.03     0.15  -0.05   0.05
  31   1     0.01   0.01  -0.01    -0.14  -0.09   0.09     0.09  -0.12  -0.07
  32   1    -0.01   0.01  -0.00     0.17   0.08   0.06    -0.11   0.13  -0.03
  33   1    -0.01  -0.01   0.00     0.13   0.09  -0.08     0.05  -0.15  -0.04
  34   1     0.00   0.01   0.00    -0.16  -0.10  -0.06    -0.04   0.16  -0.01
  35   1     0.03  -0.03   0.00    -0.09  -0.15  -0.04     0.15   0.05   0.06
  36   1     0.00  -0.03   0.01     0.09   0.13  -0.05    -0.16  -0.00   0.09
  37   1    -0.03  -0.08  -0.00     0.20   0.04   0.09    -0.11  -0.13  -0.05
  38   1    -0.02  -0.03   0.00    -0.17  -0.03   0.09     0.08   0.13  -0.03
  39   1     0.04   0.06   0.14     0.03   0.02   0.02    -0.08  -0.05  -0.06
  40   1     0.00  -0.09  -0.01    -0.05  -0.10   0.00     0.03   0.15   0.05
  41   1    -0.07  -0.10   0.02    -0.06  -0.04  -0.02     0.07   0.05   0.02
  42   1     0.01   0.02  -0.01    -0.03   0.09   0.08    -0.01  -0.17  -0.07
  43   1    -0.03  -0.15   0.22    -0.02  -0.04   0.02     0.03   0.06  -0.01
  44   1    -0.10   0.29  -0.05    -0.05  -0.03  -0.01     0.06   0.07   0.01
  45   1    -0.12  -0.18  -0.05    -0.04  -0.01  -0.03     0.05  -0.00   0.04
  46   1     0.15   0.14  -0.02    -0.01   0.01  -0.01     0.03  -0.00   0.02
  47   1     0.04  -0.28   0.04     0.00  -0.02   0.00     0.00   0.01  -0.00
  48   1     0.09   0.16  -0.19     0.01   0.01  -0.01     0.00   0.00   0.01
  49   1    -0.14  -0.16   0.10    -0.01  -0.01   0.01    -0.00   0.01  -0.01
  50   1     0.03   0.24   0.00     0.01   0.02   0.00    -0.01   0.00  -0.01
  51   1    -0.18  -0.18   0.10    -0.01  -0.01   0.01     0.00   0.00   0.00
  52   1    -0.08   0.02   0.08    -0.00   0.01   0.01    -0.01  -0.03   0.00
  53   1     0.08   0.28   0.04     0.01   0.02   0.00    -0.00  -0.01   0.00
                     43                     44                     45
                        a                      a                      a 
 Frequencies --   931.3740               940.8782               942.6707
 Red. masses --     5.2526                 6.0422                 6.0420
 Frc consts  --     0.0000                 0.0000                 0.0000
 IR Inten    --     0.7666                 3.3836                 4.8305
 Raman Activ --     0.0000                 0.0000                 0.0000
 Depolar     --     0.0000                 0.0000                 0.0000
 Atom AN      X      Y      Z        X      Y      Z        X      Y      Z
   1   6     0.01   0.03  -0.01    -0.11  -0.35   0.00    -0.02  -0.05  -0.03
   2   6     0.03   0.01  -0.00    -0.27  -0.08   0.05    -0.04  -0.01   0.01
   3   6    -0.04  -0.01   0.02     0.36   0.21  -0.05     0.06   0.03   0.03
   4   6     0.01  -0.01  -0.01    -0.10   0.15   0.03    -0.02   0.03  -0.04
   5   6     0.02  -0.02  -0.00    -0.05   0.03   0.01    -0.00  -0.00   0.02
   6   6    -0.05  -0.02   0.01     0.08  -0.05  -0.02    -0.00  -0.02   0.02
   7   6     0.04   0.00  -0.01    -0.04  -0.04   0.01     0.01  -0.01  -0.05
   8   6     0.04   0.06   0.00    -0.00  -0.01  -0.00     0.01   0.02   0.03
   9   6    -0.17   0.13   0.04     0.01   0.01  -0.01    -0.06   0.06   0.02
  10   6     0.21   0.02  -0.03    -0.01   0.00   0.01     0.09   0.02  -0.05
  11   6     0.09  -0.26  -0.14     0.01  -0.01  -0.00     0.03  -0.10  -0.02
  12   6    -0.20   0.10   0.11    -0.00   0.02   0.00    -0.14  -0.07  -0.00
  13   6    -0.08  -0.05   0.01    -0.01  -0.01   0.01    -0.05   0.05  -0.04
  14   6     0.12  -0.14  -0.05    -0.00  -0.03  -0.01     0.15   0.10   0.03
  15   6    -0.15   0.14   0.01    -0.05   0.03  -0.05     0.23  -0.08   0.30
  16   6     0.04  -0.04   0.07     0.02  -0.03   0.04    -0.11   0.16  -0.19
  17   6     0.15  -0.02  -0.02     0.06   0.02   0.03    -0.27  -0.13  -0.19
  18   1     0.00  -0.03  -0.00     0.03   0.22   0.03     0.04  -0.01   0.01
  19   1    -0.01  -0.01   0.01     0.03   0.22  -0.01    -0.02   0.08   0.02
  20   1    -0.04   0.04   0.01     0.39  -0.41  -0.10     0.06  -0.06   0.01
  21   1     0.01  -0.02  -0.00    -0.07   0.12   0.02    -0.02  -0.03  -0.00
  22   1     0.01  -0.00  -0.00    -0.07   0.12   0.02    -0.00   0.07   0.00
  23   1    -0.02  -0.01  -0.00     0.10   0.11  -0.01    -0.02  -0.02  -0.01
  24   1    -0.00  -0.00  -0.00     0.09   0.11  -0.01     0.04   0.06  -0.02
  25   1     0.01   0.01   0.00    -0.03   0.00   0.01     0.04   0.01   0.01
  26   1    -0.00  -0.00   0.00    -0.02   0.01   0.00    -0.04  -0.00   0.02
  27   1     0.00  -0.01  -0.00    -0.01  -0.02   0.00     0.01  -0.05  -0.01
  28   1     0.00   0.01  -0.00    -0.02  -0.03  -0.00    -0.02   0.04  -0.00
  29   1    -0.01  -0.02  -0.00     0.01  -0.02  -0.00     0.01  -0.05  -0.01
  30   1    -0.02  -0.00  -0.00     0.03  -0.03  -0.00    -0.02   0.04  -0.00
  31   1     0.00  -0.01   0.00    -0.00  -0.01  -0.00    -0.03  -0.02   0.02
  32   1     0.02  -0.02   0.00    -0.01  -0.00  -0.00     0.05  -0.00   0.01
  33   1     0.01   0.01  -0.00    -0.00  -0.00   0.00     0.03   0.03  -0.01
  34   1     0.01  -0.01  -0.00     0.00   0.02   0.00    -0.03  -0.03  -0.01
  35   1    -0.06   0.06   0.00     0.01   0.02   0.00    -0.03  -0.03  -0.00
  36   1    -0.03   0.05  -0.00    -0.00   0.00   0.00    -0.01   0.07   0.00
  37   1     0.07   0.11   0.01    -0.01   0.00  -0.00     0.06   0.01   0.01
  38   1     0.05   0.06   0.00     0.01   0.01  -0.00    -0.01   0.06   0.02
  39   1    -0.15  -0.17  -0.12    -0.00  -0.00  -0.01    -0.06  -0.07  -0.04
  40   1     0.01   0.11  -0.00    -0.00   0.01   0.00     0.01   0.05   0.01
  41   1     0.11   0.14   0.12     0.01   0.02  -0.00     0.02   0.02   0.05
  42   1     0.01  -0.15  -0.03     0.00  -0.01  -0.00    -0.03  -0.11  -0.01
  43   1     0.15   0.12   0.07     0.01   0.01   0.00     0.02   0.04  -0.01
  44   1    -0.11  -0.12  -0.05    -0.00  -0.01  -0.00    -0.04  -0.02  -0.03
  45   1    -0.10   0.10  -0.04    -0.01   0.01  -0.00     0.01   0.04  -0.00
  46   1     0.07  -0.05   0.19     0.00  -0.01   0.02     0.03   0.01   0.04
  47   1     0.12  -0.06   0.06    -0.00  -0.00  -0.01     0.13  -0.01   0.11
  48   1    -0.10   0.03  -0.20    -0.03   0.00  -0.03     0.08   0.00   0.06
  49   1    -0.17  -0.14  -0.07    -0.03  -0.03  -0.01     0.04   0.09  -0.02
  50   1     0.13   0.07   0.07     0.00  -0.01   0.01     0.09   0.12   0.01
  51   1    -0.19  -0.18   0.03    -0.04  -0.03  -0.01     0.12   0.07   0.11
  52   1     0.01   0.19   0.02     0.03   0.09  -0.02    -0.22  -0.47   0.12
  53   1     0.00   0.17   0.00    -0.03   0.00  -0.01     0.18   0.12   0.08
                     46                     47                     48
                        a                      a                      a 
 Frequencies --   953.4007               983.4668               991.2647
 Red. masses --     4.6212                 3.9084                 4.0979
 Frc consts  --     0.0000                 0.0000                 0.0000
 IR Inten    --     0.1173                 0.2371                 0.1350
 Raman Activ --     0.0000                 0.0000                 0.0000
 Depolar     --     0.0000                 0.0000                 0.0000
 Atom AN      X      Y      Z        X      Y      Z        X      Y      Z
   1   6     0.01  -0.01   0.09    -0.01   0.02  -0.06     0.02   0.00   0.08
   2   6    -0.01   0.00  -0.03     0.02  -0.01   0.05    -0.01   0.00  -0.07
   3   6    -0.01   0.01  -0.09     0.00  -0.02   0.01     0.00  -0.01  -0.00
   4   6     0.02  -0.01   0.14    -0.03   0.00  -0.07     0.01  -0.00   0.07
   5   6    -0.02   0.01  -0.10     0.01   0.02   0.10    -0.03   0.03  -0.11
   6   6    -0.00  -0.00  -0.02     0.04   0.04  -0.09     0.06   0.01   0.11
   7   6     0.03  -0.02   0.12    -0.06   0.00   0.03    -0.05  -0.01  -0.06
   8   6    -0.03   0.00  -0.14    -0.01  -0.08   0.04    -0.04  -0.07  -0.00
   9   6     0.03  -0.01   0.05     0.14  -0.12  -0.11     0.14  -0.09   0.05
  10   6     0.04   0.05   0.06    -0.20  -0.00   0.10    -0.16   0.03  -0.11
  11   6    -0.04   0.03  -0.23     0.01   0.16   0.01     0.05   0.10   0.13
  12   6     0.08   0.10   0.21     0.12  -0.00  -0.03    -0.01  -0.14  -0.11
  13   6    -0.01  -0.16   0.14    -0.08  -0.02   0.17    -0.12   0.16  -0.04
  14   6    -0.07   0.08  -0.19     0.02  -0.02  -0.15     0.13  -0.09   0.09
  15   6     0.01  -0.08   0.10    -0.02  -0.02   0.03     0.04   0.07  -0.01
  16   6    -0.03   0.02  -0.02    -0.06   0.03   0.06    -0.03   0.06   0.02
  17   6    -0.04  -0.01  -0.08     0.06  -0.03  -0.09     0.03  -0.07  -0.03
  18   1    -0.10   0.14  -0.02     0.06  -0.09   0.01    -0.08   0.10  -0.02
  19   1     0.08  -0.12  -0.07    -0.05   0.07   0.05     0.06  -0.10  -0.06
  20   1    -0.00  -0.01  -0.07    -0.01   0.02   0.05    -0.02   0.01  -0.05
  21   1     0.03   0.17   0.01    -0.04  -0.12  -0.02     0.06   0.14   0.02
  22   1    -0.03  -0.16   0.01     0.04   0.11  -0.02    -0.06  -0.15   0.02
  23   1     0.09   0.14   0.03    -0.02  -0.15  -0.01     0.01   0.18   0.01
  24   1    -0.07  -0.13   0.04     0.01   0.13  -0.00    -0.01  -0.19  -0.01
  25   1    -0.13   0.02  -0.03     0.05  -0.10   0.01    -0.05   0.15  -0.01
  26   1     0.11  -0.01  -0.07    -0.05   0.09   0.04     0.04  -0.15  -0.04
  27   1    -0.08   0.12   0.06     0.07   0.01  -0.05    -0.09  -0.05   0.05
  28   1     0.08  -0.12   0.02    -0.08  -0.00  -0.02     0.09   0.05   0.03
  29   1    -0.01   0.17   0.02    -0.05  -0.07   0.03     0.10   0.07  -0.05
  30   1     0.01  -0.16  -0.00     0.09   0.09   0.02    -0.08  -0.04  -0.03
  31   1     0.10   0.09  -0.05    -0.00  -0.11  -0.01    -0.06   0.16   0.04
  32   1    -0.11  -0.09  -0.04    -0.03   0.15   0.00     0.04  -0.13   0.01
  33   1    -0.12  -0.05   0.06     0.03  -0.12  -0.03    -0.00   0.18   0.01
  34   1     0.12   0.04   0.04    -0.03   0.13  -0.00    -0.01  -0.18  -0.01
  35   1    -0.04   0.13  -0.01     0.12   0.03   0.02    -0.03  -0.16  -0.03
  36   1     0.04  -0.17  -0.03    -0.03  -0.09   0.03     0.10   0.12  -0.03
[...]
  44   1     0.05   0.01  -0.10    -0.00   0.00   0.01     0.03   0.01  -0.08
  45   1     0.04   0.01  -0.09     0.08   0.02  -0.21    -0.13  -0.03   0.33
  46   1    -0.03   0.04   0.01     0.02  -0.03  -0.00    -0.05   0.07   0.01
  47   1    -0.01  -0.00   0.01    -0.02   0.00   0.04     0.06   0.00  -0.12
  48   1     0.01  -0.02  -0.00     0.12  -0.15  -0.04    -0.24   0.29   0.07
  49   1     0.16  -0.19  -0.05     0.15  -0.18  -0.05    -0.23   0.28   0.07
  50   1    -0.10  -0.01   0.23    -0.06  -0.00   0.12     0.09   0.01  -0.19
  51   1    -0.01   0.02   0.00    -0.02   0.03   0.01     0.04  -0.05  -0.01
  52   1    -0.02  -0.00  -0.02    -0.02  -0.00  -0.02     0.03   0.00   0.03
  53   1     0.01   0.00  -0.02     0.01   0.00  -0.01    -0.01  -0.00   0.02
                    142                    143                    144
                        a                      a                      a 
 Frequencies --  2983.8757              2986.6286              2988.2973
 Red. masses --     1.6450                 1.7619                 1.5556
 Frc consts  --     0.0000                 0.0000                 0.0000
 IR Inten    --   100.1230                52.6305                51.0442
 Raman Activ --     0.0000                 0.0000                 0.0000
 Depolar     --     0.0000                 0.0000                 0.0000
 Atom AN      X      Y      Z        X      Y      Z        X      Y      Z
   1   6     0.02   0.01  -0.01     0.01   0.00   0.00     0.01   0.01  -0.00
   2   6    -0.09   0.00   0.03    -0.03   0.00   0.00    -0.05   0.00   0.01
   3   6    -0.06  -0.00   0.04    -0.03   0.00  -0.00    -0.05   0.00   0.01
   4   6    -0.03   0.00   0.04    -0.03   0.00  -0.01    -0.06   0.00   0.01
   5   6     0.02  -0.00   0.04    -0.02   0.00  -0.01    -0.05   0.00   0.01
   6   6     0.07  -0.00   0.04    -0.00   0.00  -0.02    -0.03   0.00   0.01
   7   6     0.07  -0.00   0.04     0.01   0.00  -0.03     0.00  -0.00   0.00
   8   6     0.07  -0.01   0.05     0.02   0.00  -0.04     0.02  -0.00  -0.00
   9   6    -0.02  -0.00   0.09     0.05   0.00  -0.09     0.07  -0.00  -0.03
  10   6     0.03  -0.00   0.03    -0.01   0.00  -0.05     0.04  -0.00   0.03
  11   6    -0.01  -0.02  -0.04    -0.08   0.02  -0.09     0.06   0.01   0.09
  12   6     0.01  -0.00   0.00    -0.09   0.10   0.03    -0.01   0.04   0.03
  13   6     0.02  -0.03  -0.00    -0.04   0.03   0.03    -0.02   0.03  -0.01
  14   6     0.03  -0.02  -0.03    -0.04  -0.01   0.08    -0.00   0.05  -0.07
  15   6     0.02  -0.04   0.01    -0.02  -0.00   0.04    -0.01   0.04  -0.03
  16   6     0.02  -0.03   0.01    -0.01  -0.01   0.03    -0.01   0.04  -0.03
  17   6    -0.01   0.01  -0.00    -0.00   0.00  -0.01     0.01  -0.01   0.01
  18   1    -0.02   0.00   0.05    -0.00   0.00   0.01    -0.01   0.00   0.03
  19   1    -0.02   0.00  -0.02    -0.01   0.00  -0.01    -0.02   0.00  -0.02
  20   1    -0.02  -0.03   0.00    -0.01  -0.01   0.00    -0.02  -0.03   0.00
  21   1     0.13   0.01  -0.30     0.04   0.00  -0.09     0.07   0.01  -0.16
  22   1     0.18  -0.02   0.19     0.08  -0.01   0.08     0.12  -0.01   0.13
  23   1     0.10   0.01  -0.23     0.03   0.00  -0.07     0.07   0.00  -0.16
  24   1     0.10  -0.01   0.11     0.07  -0.01   0.07     0.11  -0.01   0.12
  25   1     0.08   0.01  -0.17     0.03   0.00  -0.06     0.08   0.01  -0.19
  26   1     0.03  -0.00   0.04     0.07  -0.01   0.08     0.13  -0.01   0.15
  27   1    -0.09   0.01  -0.09     0.05  -0.00   0.05     0.09  -0.01   0.11
  28   1     0.03   0.00  -0.04     0.00   0.00  -0.01     0.06   0.00  -0.14
  29   1    -0.20   0.02  -0.22     0.03  -0.00   0.03     0.06  -0.01   0.07
  30   1    -0.04  -0.00   0.09    -0.02  -0.00   0.04     0.05   0.00  -0.10
  31   1    -0.20   0.02  -0.23     0.00   0.00  -0.00    -0.01   0.00  -0.02
  32   1    -0.03  -0.00   0.08    -0.06  -0.00   0.10    -0.00   0.00   0.01
  33   1    -0.23   0.02  -0.27     0.01  -0.00   0.00    -0.05   0.00  -0.06
  34   1    -0.04  -0.00   0.09    -0.07  -0.00   0.14    -0.03  -0.00   0.06
  35   1     0.16   0.00  -0.28    -0.19  -0.00   0.35    -0.14  -0.00   0.27
  36   1    -0.06   0.00  -0.06    -0.00  -0.00  -0.02    -0.12   0.01  -0.16
  37   1    -0.02  -0.00   0.04    -0.05  -0.00   0.07    -0.02  -0.00   0.04
  38   1    -0.10   0.02  -0.14     0.08  -0.01   0.10    -0.10   0.02  -0.13
  39   1    -0.07   0.09   0.02    -0.01   0.00  -0.01     0.09  -0.10  -0.01
  40   1     0.11  -0.02   0.12     0.29  -0.06   0.33    -0.29   0.06  -0.32
  41   1    -0.01   0.01   0.00     0.34  -0.37  -0.08     0.13  -0.14  -0.03
  42   1    -0.02   0.00  -0.02    -0.03   0.01  -0.02    -0.08   0.01  -0.08
  43   1    -0.10   0.11   0.04     0.10  -0.11  -0.03     0.09  -0.09  -0.03
  44   1     0.02   0.00  -0.04     0.03   0.02  -0.07    -0.03  -0.01   0.06
  45   1    -0.04  -0.01   0.10     0.12   0.03  -0.31    -0.12  -0.02   0.28
  46   1    -0.05   0.07   0.01    -0.00  -0.00   0.01     0.12  -0.15  -0.05
  47   1     0.03  -0.00  -0.05     0.06   0.01  -0.13    -0.06  -0.01   0.14
  48   1    -0.11   0.13   0.03    -0.00  -0.00   0.00     0.10  -0.12  -0.03
  49   1    -0.09   0.11   0.03    -0.03   0.04   0.01     0.10  -0.12  -0.03
  50   1     0.03   0.00  -0.07     0.05   0.01  -0.12    -0.07  -0.01   0.15
  51   1     0.02  -0.02  -0.01     0.00  -0.00  -0.00    -0.02   0.02   0.01
  52   1     0.01   0.00   0.01     0.01  -0.00   0.01    -0.02  -0.00  -0.02
  53   1    -0.00  -0.00   0.01    -0.01  -0.00   0.03     0.01   0.00  -0.02
                    145                    146                    147
                        a                      a                      a 
 Frequencies --  2990.8548              2995.7738              2996.6683
 Red. masses --     1.5572                 1.6600                 1.6282
 Frc consts  --     0.0000                 0.0000                 0.0000
 IR Inten    --   169.7256               233.8223               230.6951
 Raman Activ --     0.0000                 0.0000                 0.0000
 Depolar     --     0.0000                 0.0000                 0.0000
 Atom AN      X      Y      Z        X      Y      Z        X      Y      Z
   1   6     0.02   0.01  -0.00     0.00   0.00  -0.00    -0.00  -0.00   0.00
   2   6    -0.05   0.00   0.01    -0.00  -0.00   0.00     0.01  -0.00  -0.00
   3   6    -0.06   0.00   0.01    -0.00  -0.00   0.00     0.01  -0.00  -0.00
   4   6    -0.08   0.00   0.01    -0.00  -0.00   0.00     0.02  -0.00  -0.00
   5   6    -0.08   0.00   0.01    -0.00  -0.00   0.01     0.03  -0.00  -0.01
   6   6    -0.08   0.00   0.01    -0.01  -0.00   0.01     0.03  -0.00  -0.01
   7   6    -0.06   0.00  -0.00    -0.01  -0.00   0.02     0.05  -0.00  -0.01
   8   6    -0.05   0.00  -0.01    -0.01  -0.00   0.03     0.05  -0.00  -0.03
   9   6    -0.02   0.00  -0.02    -0.03  -0.00   0.07     0.11  -0.00  -0.09
  10   6    -0.02   0.00  -0.02     0.01  -0.00   0.05     0.05  -0.00  -0.01
  11   6     0.00  -0.02  -0.03     0.06   0.02   0.11     0.06  -0.03   0.03
  12   6     0.05  -0.08  -0.04    -0.00   0.04   0.05     0.08  -0.09  -0.02
  13   6     0.02  -0.03  -0.00    -0.02  -0.00   0.05     0.02  -0.03   0.00
  14   6     0.01  -0.03   0.03    -0.04  -0.04   0.14     0.00  -0.04   0.05
  15   6     0.01  -0.02   0.01    -0.01  -0.01   0.04     0.01  -0.02   0.01
  16   6     0.01  -0.02   0.01    -0.00  -0.02   0.03     0.01  -0.01   0.01
  17   6    -0.01   0.00  -0.01    -0.00   0.00  -0.01    -0.01   0.00  -0.01
  18   1    -0.01   0.00   0.03    -0.00  -0.00   0.00     0.00  -0.00  -0.01
  19   1    -0.03   0.00  -0.03     0.00   0.00  -0.00     0.01  -0.00   0.01
  20   1    -0.02  -0.03   0.00    -0.00  -0.00  -0.00     0.01   0.01  -0.00
  21   1     0.06   0.01  -0.15     0.00   0.00  -0.01    -0.01  -0.00   0.03
  22   1     0.12  -0.01   0.12     0.00  -0.00   0.00    -0.02   0.00  -0.02
  23   1     0.07   0.00  -0.17     0.01   0.00  -0.01    -0.02  -0.00   0.04
  24   1     0.13  -0.01   0.14     0.00  -0.00   0.00    -0.03   0.00  -0.03
  25   1     0.10   0.01  -0.22     0.01   0.00  -0.02    -0.02  -0.00   0.05
  26   1     0.17  -0.02   0.19     0.00  -0.00   0.00    -0.04   0.00  -0.04
  27   1     0.17  -0.02   0.20     0.00  -0.00   0.00    -0.05   0.01  -0.06
  28   1     0.10   0.01  -0.22     0.01   0.00  -0.03    -0.04  -0.00   0.08
  29   1     0.17  -0.02   0.20    -0.00  -0.00   0.00    -0.06   0.01  -0.07
  30   1     0.11   0.01  -0.22     0.02   0.00  -0.04    -0.05  -0.00   0.10
  31   1     0.14  -0.01   0.17    -0.00   0.00  -0.00    -0.08   0.01  -0.10
  32   1     0.08   0.01  -0.16     0.03   0.00  -0.06    -0.08  -0.00   0.15
  33   1     0.12  -0.01   0.14    -0.02   0.00  -0.02    -0.07   0.01  -0.09
  34   1     0.06   0.00  -0.12     0.04   0.00  -0.07    -0.09  -0.00   0.18
  35   1    -0.01   0.00   0.01     0.12   0.00  -0.22    -0.28  -0.01   0.50
  36   1     0.06  -0.00   0.07    -0.03   0.00  -0.02    -0.13   0.01  -0.19
  37   1    -0.00  -0.00  -0.01     0.06   0.01  -0.08    -0.08  -0.01   0.14
  38   1     0.05  -0.01   0.07    -0.08   0.01  -0.10    -0.06   0.01  -0.09
  39   1    -0.06   0.08   0.02     0.11  -0.13  -0.02    -0.06   0.08   0.03
  40   1     0.07  -0.02   0.07    -0.35   0.07  -0.39    -0.13   0.02  -0.16
  41   1    -0.27   0.29   0.06     0.15  -0.15  -0.03    -0.30   0.33   0.07
  42   1     0.08  -0.01   0.08    -0.14   0.01  -0.15     0.03  -0.01   0.01
  43   1    -0.09   0.10   0.03     0.01  -0.01   0.00    -0.09   0.10   0.04
  44   1     0.01  -0.00  -0.02     0.07   0.03  -0.16     0.02   0.00  -0.04
  45   1     0.06   0.01  -0.15     0.21   0.05  -0.53     0.09   0.01  -0.21
  46   1    -0.09   0.11   0.03    -0.09   0.10   0.05    -0.10   0.12   0.04
  47   1     0.03   0.00  -0.06     0.07   0.01  -0.16     0.03   0.00  -0.06
  48   1    -0.05   0.07   0.02    -0.03   0.03   0.01    -0.05   0.06   0.02
  49   1    -0.05   0.06   0.02    -0.05   0.05   0.02    -0.04   0.05   0.01
  50   1     0.03   0.00  -0.06     0.05   0.01  -0.13     0.02   0.00  -0.05
  51   1     0.01  -0.01  -0.00     0.01  -0.01  -0.00     0.01  -0.02  -0.00
  52   1     0.01   0.00   0.01     0.02   0.00   0.02     0.01   0.00   0.01
  53   1    -0.01  -0.00   0.01    -0.02  -0.00   0.04    -0.01  -0.00   0.01
                    148                    149                    150
                        a                      a                      a 
 Frequencies --  3029.7708              3030.0613              3032.0188
 Red. masses --     1.9590                 1.9586                 1.9258
 Frc consts  --     0.0000                 0.0000                 0.0000
 IR Inten    --    61.4574                62.7569                57.8391
 Raman Activ --     0.0000                 0.0000                 0.0000
 Depolar     --     0.0000                 0.0000                 0.0000
 Atom AN      X      Y      Z        X      Y      Z        X      Y      Z
   1   6    -0.06   0.01  -0.28    -0.00  -0.00  -0.00    -0.24  -0.13   0.04
   2   6    -0.01   0.00  -0.05    -0.00   0.00  -0.00    -0.03  -0.00   0.01
   3   6    -0.00   0.00  -0.01    -0.00   0.00  -0.00    -0.01  -0.00   0.00
   4   6    -0.00   0.00  -0.01     0.00   0.00  -0.00    -0.00   0.00   0.00
   5   6    -0.00   0.00  -0.00     0.00   0.00  -0.00    -0.00  -0.00   0.00
   6   6    -0.00   0.00  -0.00     0.00   0.00  -0.00    -0.00   0.00   0.00
   7   6    -0.00   0.00  -0.00     0.00   0.00  -0.00    -0.00  -0.00   0.00
   8   6    -0.00   0.00  -0.00     0.00   0.00  -0.00    -0.00   0.00   0.00
   9   6    -0.00   0.00  -0.00     0.00   0.00  -0.00    -0.00  -0.00   0.00
  10   6    -0.00   0.00  -0.00     0.00   0.00  -0.00    -0.00  -0.00   0.00
  11   6    -0.00   0.00  -0.00     0.00  -0.00  -0.00     0.00   0.00   0.00
  12   6    -0.00  -0.00  -0.00     0.00  -0.00  -0.00     0.00  -0.00   0.00
  13   6     0.00   0.00  -0.00     0.00  -0.00  -0.00     0.00  -0.00   0.00
  14   6     0.00   0.00  -0.00     0.00  -0.00  -0.00     0.00  -0.00   0.00
  15   6    -0.00   0.00   0.00     0.01  -0.01  -0.01     0.00  -0.00   0.00
  16   6    -0.00   0.00   0.00     0.03  -0.02  -0.03     0.00  -0.01   0.01
  17   6    -0.00   0.00   0.00     0.18  -0.13  -0.19     0.04  -0.03   0.06
  18   1    -0.30  -0.01   0.59    -0.00  -0.00   0.00     0.17  -0.01  -0.44
  19   1     0.51  -0.05   0.45     0.01  -0.00   0.01     0.30  -0.05   0.33
  20   1    -0.00   0.01  -0.04     0.00   0.00  -0.00     0.38   0.52  -0.04
  21   1    -0.04  -0.00   0.08    -0.00  -0.00   0.00     0.03   0.00  -0.07
  22   1     0.06  -0.00   0.06     0.00  -0.00   0.00     0.05  -0.00   0.05
  23   1    -0.01  -0.00   0.03    -0.00   0.00   0.00     0.02   0.00  -0.04
  24   1     0.02  -0.00   0.02     0.00  -0.00   0.00     0.03  -0.00   0.03
  25   1    -0.01   0.00   0.01    -0.00  -0.00   0.00     0.01  -0.00  -0.01
  26   1     0.01  -0.00   0.01     0.00  -0.00   0.00     0.01  -0.00   0.01
  27   1     0.00  -0.00   0.00    -0.00   0.00  -0.00     0.01  -0.00   0.01
  28   1    -0.00  -0.00   0.00    -0.00  -0.00   0.00     0.00   0.00  -0.01
  29   1     0.00  -0.00   0.00    -0.00   0.00  -0.00     0.00  -0.00   0.00
  30   1    -0.00  -0.00   0.00    -0.00  -0.00   0.00     0.00   0.00  -0.00
  31   1     0.00  -0.00   0.00    -0.00   0.00  -0.00     0.00  -0.00   0.00
  32   1    -0.00  -0.00   0.00    -0.00  -0.00   0.00     0.00   0.00  -0.00
  33   1     0.00  -0.00   0.00    -0.00   0.00  -0.00     0.00  -0.00   0.00
  34   1    -0.00  -0.00   0.00    -0.00  -0.00   0.00     0.00   0.00  -0.00
  35   1    -0.00  -0.00   0.00    -0.00  -0.00   0.00     0.00   0.00  -0.00
  36   1     0.00  -0.00   0.00    -0.00   0.00  -0.00     0.00   0.00   0.00
  37   1    -0.00  -0.00   0.00    -0.00  -0.00   0.00     0.00   0.00  -0.00
  38   1     0.00  -0.00   0.00     0.00  -0.00   0.00     0.00  -0.00   0.00
  39   1    -0.00   0.00   0.00    -0.00   0.00   0.00     0.00  -0.00  -0.00
  40   1     0.00  -0.00   0.00     0.00  -0.00   0.00    -0.00   0.00  -0.00
  41   1    -0.00   0.00   0.00    -0.00   0.00   0.00    -0.00   0.00   0.00
  42   1     0.00  -0.00   0.00     0.00  -0.00   0.00    -0.00   0.00  -0.00
  43   1     0.00  -0.00  -0.00    -0.00   0.01   0.00    -0.00   0.00   0.00
  44   1    -0.00  -0.00   0.00    -0.00  -0.00   0.00     0.00   0.00  -0.00
  45   1    -0.00  -0.00   0.00    -0.01  -0.00   0.01     0.00   0.00  -0.01
  46   1     0.00  -0.00  -0.00    -0.01   0.01   0.00    -0.00   0.00   0.00
  47   1     0.00   0.00  -0.00    -0.01  -0.00   0.03     0.01   0.00  -0.01
  48   1     0.00  -0.00   0.00    -0.02   0.02   0.00    -0.01   0.01   0.00
  49   1     0.00  -0.00  -0.00    -0.06   0.07   0.01    -0.01   0.02   0.00
  50   1     0.00   0.00  -0.00    -0.03  -0.01   0.08     0.01   0.00  -0.02
  51   1     0.00  -0.00  -0.00    -0.42   0.54   0.10    -0.07   0.09   0.03
  52   1    -0.00   0.00  -0.00     0.01  -0.02  -0.04    -0.14  -0.00  -0.13
  53   1     0.00   0.00  -0.01    -0.24  -0.08   0.60     0.06   0.01  -0.12
                    151                    152                    153
                        a                      a                      a 
 Frequencies --  3032.0494              3037.5281              3037.5846
 Red. masses --     1.9324                 1.2642                 1.2596
 Frc consts  --     0.0000                 0.0000                 0.0000
 IR Inten    --    67.3671                47.6720                18.8349
 Raman Activ --     0.0000                 0.0000                 0.0000
 Depolar     --     0.0000                 0.0000                 0.0000
 Atom AN      X      Y      Z        X      Y      Z        X      Y      Z
   1   6    -0.07  -0.04   0.01    -0.03   0.13   0.01     0.01  -0.06  -0.01
   2   6    -0.01  -0.00   0.00    -0.00   0.01   0.00     0.00  -0.00  -0.00
   3   6    -0.00  -0.00   0.00    -0.00  -0.00   0.00     0.00   0.00  -0.00
   4   6    -0.00   0.00   0.00     0.00   0.00   0.00    -0.00  -0.00  -0.00
   5   6    -0.00   0.00   0.00    -0.00   0.00   0.00     0.00  -0.00  -0.00
   6   6    -0.00   0.00  -0.00     0.00  -0.00  -0.00    -0.00   0.00   0.00
   7   6    -0.00   0.00  -0.00    -0.00   0.00   0.00     0.00  -0.00  -0.00
   8   6    -0.00   0.00  -0.00     0.00  -0.00  -0.00    -0.00   0.00  -0.00
   9   6    -0.00   0.00  -0.00    -0.00   0.00   0.00    -0.00   0.00  -0.00
  10   6    -0.00   0.00  -0.00    -0.00   0.00  -0.00    -0.00   0.00  -0.00
  11   6    -0.00   0.00  -0.00    -0.00  -0.00  -0.00    -0.00   0.00  -0.00
  12   6    -0.00   0.00  -0.00    -0.00  -0.00  -0.00    -0.00  -0.00  -0.00
  13   6    -0.00   0.00  -0.00    -0.00   0.00  -0.00    -0.00   0.00  -0.00
  14   6    -0.00   0.00  -0.00     0.00  -0.00  -0.00     0.00   0.00  -0.00
  15   6    -0.00   0.01  -0.01    -0.00   0.00  -0.00    -0.00   0.00  -0.00
  16   6    -0.01   0.02  -0.02     0.00   0.00  -0.00     0.00   0.01  -0.00
  17   6    -0.15   0.10  -0.21     0.04   0.05   0.01     0.09   0.10   0.02
  18   1     0.05  -0.00  -0.12     0.19   0.02  -0.41    -0.09  -0.01   0.19
  19   1     0.09  -0.02   0.10     0.32  -0.01   0.31    -0.15   0.01  -0.14
  20   1     0.11   0.15  -0.01    -0.39  -0.49   0.05     0.18   0.23  -0.02
  21   1     0.01   0.00  -0.02     0.00   0.00  -0.01    -0.00  -0.00   0.00
  22   1     0.02  -0.00   0.02     0.00   0.00   0.01    -0.00  -0.00  -0.00
  23   1     0.01   0.00  -0.01     0.00   0.00  -0.01    -0.00  -0.00   0.00
  24   1     0.01  -0.00   0.01     0.01  -0.00   0.01    -0.00   0.00  -0.00
  25   1     0.00  -0.00  -0.00     0.00  -0.00  -0.00     0.00   0.00  -0.00
  26   1     0.00  -0.00   0.00     0.00  -0.00   0.00     0.00   0.00   0.00
  27   1     0.00  -0.00   0.00     0.00  -0.00   0.00    -0.00   0.00  -0.00
  28   1     0.00   0.00  -0.00     0.00   0.00  -0.00    -0.00  -0.00   0.00
  29   1     0.00  -0.00   0.00    -0.00   0.00  -0.00     0.00  -0.00   0.00
  30   1     0.00   0.00  -0.00    -0.00  -0.00   0.00     0.00   0.00  -0.00
  31   1     0.00  -0.00   0.00     0.00  -0.00   0.00    -0.00   0.00  -0.00
  32   1     0.00   0.00  -0.00     0.00   0.00  -0.00    -0.00  -0.00   0.00
  33   1     0.00  -0.00   0.00    -0.00   0.00  -0.00     0.00  -0.00   0.00
  34   1     0.00  -0.00  -0.00    -0.00  -0.00   0.00     0.00   0.00  -0.00
  35   1     0.00   0.00  -0.00     0.00   0.00  -0.00    -0.00  -0.00   0.00
  36   1     0.00  -0.00   0.00     0.00  -0.00   0.00     0.00  -0.00   0.00
  37   1    -0.00  -0.00   0.00     0.00   0.00  -0.00     0.00   0.00  -0.00
  38   1     0.00  -0.00   0.00     0.00  -0.00   0.00     0.00  -0.00   0.00
  39   1     0.00  -0.00  -0.00    -0.00   0.00   0.00     0.00  -0.00  -0.00
  40   1     0.00  -0.00   0.00     0.00  -0.00   0.00     0.00  -0.00   0.00
  41   1     0.00  -0.00  -0.00    -0.00   0.00   0.00    -0.00   0.00   0.00
  42   1     0.00  -0.00   0.00     0.00  -0.00   0.00     0.00  -0.00   0.00
  43   1     0.01  -0.01  -0.00     0.00  -0.00  -0.00     0.00  -0.00  -0.00
  44   1    -0.00  -0.00   0.01    -0.00  -0.00   0.00    -0.00  -0.00   0.00
  45   1    -0.01  -0.00   0.02    -0.00  -0.00   0.00    -0.00  -0.00   0.00
  46   1     0.01  -0.01  -0.00    -0.00  -0.00  -0.00     0.00  -0.00  -0.00
  47   1    -0.02  -0.00   0.04    -0.00  -0.00   0.01    -0.01  -0.00   0.01
  48   1     0.03  -0.03  -0.01     0.00  -0.00  -0.00     0.01  -0.01  -0.00
  49   1     0.05  -0.05  -0.02     0.00  -0.00  -0.00     0.01  -0.01  -0.00
  50   1    -0.03  -0.00   0.07    -0.00   0.00   0.00    -0.00   0.00   0.01
  51   1     0.24  -0.32  -0.11     0.14  -0.16  -0.04     0.29  -0.35  -0.08
  52   1     0.49   0.01   0.45    -0.21   0.01  -0.19    -0.44   0.01  -0.42
  53   1    -0.21  -0.03   0.41    -0.08  -0.01   0.20    -0.18  -0.03   0.44
