 Entering Gaussian System
 *********************************************
 Gaussian 98:
 frequency output generated by the xtb code
 *********************************************
                         Standard orientation:
 --------------------------------------------------------------------
  Center     Atomic     Atomic              Coordinates (Angstroms)
  Number     Number      Type              X           Y           Z
 --------------------------------------------------------------------
    1          6             0       -1.168810   -9.359867   -0.409693
    2          6             0       -1.966600   -8.080440   -0.189497
    3          6             0       -1.084201   -6.837780   -0.280797
    4          6             0       -1.877938   -5.549810   -0.076275
    5          6             0       -0.987715   -4.311228   -0.141892
    6          6             0       -1.781888   -3.020343    0.041906
    7          6             0       -0.885413   -1.785442    0.000047
    8          6             0       -1.678787   -0.491268    0.162891
    9          6             0       -0.776132    0.739272    0.126801
   10          6             0       -1.570367    2.036485    0.263233
   11          6             0       -0.680588    3.276422    0.352399
   12          6             0        0.075443    3.564614   -0.943610
   13          6             0        0.812610    4.903708   -0.921670
   14          6             0        1.967812    4.935370    0.076893
   15          6             0        2.764269    6.234553   -0.011707
   16          6             0        3.902425    6.280279    1.005076
   17          6             0        4.690964    7.580981    0.916720
   18          1             0       -0.708375   -9.357150   -1.395422
   19          1             0       -0.380497   -9.450482    0.334649
   20          1             0       -1.813736  -10.232423   -0.334582
   21          1             0       -2.441288   -8.113475    0.793895
   22          1             0       -2.760500   -8.014661   -0.937100
   23          1             0       -0.600194   -6.811292   -1.260068
   24          1             0       -0.296719   -6.899945    0.474192
   25          1             0       -2.377369   -5.583690    0.895012
   26          1             0       -2.653557   -5.478197   -0.842601
   27          1             0       -0.221647   -4.376726    0.634482
   28          1             0       -0.476374   -4.285088   -1.107167
   29          1             0       -2.536137   -2.945418   -0.745032
   30          1             0       -2.307242   -3.052372    0.999388
   31          1             0       -0.140022   -1.853943    0.796054
   32          1             0       -0.348980   -1.761656   -0.951618
   33          1             0       -2.419378   -0.418799   -0.637193
   34          1             0       -2.220426   -0.516305    1.111557
   35          1             0       -0.223338    0.743997   -0.813980
   36          1             0       -0.048915    0.676468    0.939959
   37          1             0       -2.182700    1.978935    1.166871
   38          1             0       -2.248709    2.136860   -0.587438
   39          1             0       -1.305304    4.140745    0.591863
   40          1             0        0.028518    3.141531    1.170803
   41          1             0        0.797658    2.769004   -1.134016
   42          1             0       -0.639075    3.570839   -1.770734
   43          1             0        0.106325    5.702608   -0.683339
   44          1             0        1.208008    5.101935   -1.921285
   45          1             0        1.579826    4.827408    1.091110
   46          1             0        2.633214    4.090428   -0.116696
   47          1             0        3.176214    6.339679   -1.018349
   48          1             0        2.094198    7.080427    0.160130
   49          1             0        4.574043    5.436062    0.832438
   50          1             0        3.490534    6.173783    2.011376
   51          1             0        4.041298    8.433534    1.103048
   52          1             0        5.493624    7.594128    1.650545
   53          1             0        5.128363    7.695232   -0.072839
 --------------------------------------------------------------------
     1 basis functions        1 primitive gaussians
     1 alpha electrons        1 beta electrons
 
 Harmonic frequencies (cm**-1), IR intensities (KM/Mole),
 Raman scattering activities (A**4/amu), Raman depolarization ratios,
 reduced masses (AMU), force constants (mDyne/A) and normal coordinates:
                      1                      2                      3
                        a                      a                      a 
 Frequencies --     9.5202                17.9937                24.1383
 Red. masses --    99.0000                99.0000                99.0000
 Frc consts  --    99.0000                99.0000                99.0000
 IR Inten    --    99.0000                99.0000                99.0000
 Raman Activ --     0.0000                 0.0000                 0.0000
 Depolar     --     0.0000                 0.0000                 0.0000
 Atom AN      X      Y      Z        X      Y      Z        X      Y      Z
   1   6     0.25   0.07   0.10     0.07   0.04  -0.18     0.07   0.07  -0.36
   2   6     0.19   0.04   0.05     0.00   0.03  -0.37     0.10   0.02   0.09
   3   6     0.13   0.08   0.04     0.05   0.03   0.08     0.02   0.06  -0.13
   4   6     0.07   0.05  -0.00    -0.01   0.02  -0.11     0.04   0.01   0.26
   5   6     0.02   0.09  -0.00     0.03   0.02   0.29    -0.03   0.05   0.04
   6   6    -0.03   0.06  -0.04    -0.03   0.02   0.07    -0.02   0.02   0.29
   7   6    -0.07   0.09  -0.04    -0.01   0.01   0.35    -0.07   0.04   0.08
   8   6    -0.11   0.07  -0.06    -0.05   0.02   0.11    -0.06   0.03   0.15
   9   6    -0.14   0.09  -0.05    -0.03   0.02   0.24    -0.07   0.04  -0.02
  10   6    -0.17   0.07  -0.05    -0.06   0.03  -0.02    -0.07   0.05  -0.11
  11   6    -0.19   0.09  -0.03    -0.07   0.04  -0.06    -0.05   0.04  -0.15
  12   6    -0.21   0.14  -0.03     0.03  -0.08  -0.03     0.08  -0.10  -0.10
  13   6    -0.12   0.08   0.06     0.05  -0.09  -0.09     0.12  -0.12  -0.15
  14   6    -0.05  -0.10  -0.02    -0.01  -0.03  -0.02    -0.02  -0.04   0.01
  15   6     0.05  -0.15   0.05     0.03  -0.06  -0.09     0.07  -0.10  -0.05
  16   6     0.13  -0.35  -0.03    -0.03   0.00  -0.03    -0.10  -0.01   0.13
  17   6     0.23  -0.40   0.04     0.03  -0.04  -0.12    -0.01  -0.07   0.06
  18   1     0.08   0.02   0.03     0.13   0.04  -0.00    -0.09   0.06  -0.16
  19   1     0.07   0.04   0.04    -0.06  -0.01   0.03     0.11   0.01  -0.20
  20   1     0.08   0.01   0.03     0.01   0.01  -0.15     0.04   0.01  -0.06
  21   1     0.05   0.01   0.01    -0.11  -0.01  -0.16     0.14  -0.03   0.08
  22   1     0.06  -0.00   0.01     0.08   0.03  -0.19    -0.06   0.02   0.12
  23   1     0.05   0.02   0.02     0.12   0.03   0.08    -0.10   0.05  -0.09
  24   1     0.03   0.04   0.02    -0.07  -0.01   0.11     0.08   0.01  -0.12
  25   1     0.01   0.01  -0.00    -0.10  -0.01  -0.08     0.11  -0.02   0.13
  26   1     0.03   0.00  -0.01     0.08   0.02  -0.11    -0.07   0.01   0.16
  27   1     0.00   0.04   0.00    -0.07  -0.01   0.16     0.05   0.02  -0.05
  28   1     0.01   0.03   0.00     0.11   0.02   0.14    -0.09   0.03  -0.03
  29   1    -0.00   0.01  -0.02     0.06   0.01  -0.05    -0.07   0.00   0.14
  30   1    -0.01   0.02  -0.02    -0.09   0.00  -0.03     0.07  -0.01   0.12
  31   1    -0.02   0.03  -0.01    -0.07   0.00   0.17     0.02   0.03  -0.01
  32   1    -0.02   0.03  -0.01     0.08   0.00   0.15    -0.07   0.00  -0.01
  33   1    -0.03   0.01  -0.02     0.04  -0.01  -0.02    -0.05  -0.00   0.07
  34   1    -0.04   0.02  -0.02    -0.08   0.02  -0.01     0.02   0.02   0.06
  35   1    -0.04   0.03  -0.01     0.05  -0.01   0.11    -0.04  -0.02  -0.02
  36   1    -0.04   0.03  -0.01    -0.06   0.02   0.12    -0.01   0.04  -0.02
  37   1    -0.05   0.02  -0.02    -0.05   0.04  -0.03    -0.03   0.03  -0.04
  38   1    -0.05   0.02  -0.02     0.02  -0.02  -0.04    -0.01   0.00  -0.04
  39   1    -0.06   0.02   0.00    -0.03   0.02  -0.06    -0.02   0.02  -0.09
  40   1    -0.05   0.02  -0.01    -0.04   0.04   0.00    -0.04   0.03  -0.02
  41   1    -0.08   0.03  -0.03     0.01  -0.03   0.03     0.02  -0.04   0.02
  42   1    -0.07   0.07  -0.00     0.03  -0.04  -0.02     0.05  -0.05  -0.05
  43   1    -0.01   0.03   0.05     0.01  -0.02  -0.06     0.03  -0.02  -0.10
  44   1    -0.05   0.05   0.01     0.03  -0.05  -0.02     0.08  -0.07  -0.03
  45   1     0.00  -0.05  -0.00    -0.02   0.02  -0.01    -0.05   0.03  -0.01
  46   1    -0.04  -0.04  -0.04    -0.01  -0.02   0.03    -0.01  -0.03   0.06
  47   1    -0.01  -0.02   0.01     0.03  -0.05  -0.02     0.07  -0.08  -0.00
  48   1     0.04  -0.03   0.06     0.01  -0.01  -0.06     0.02  -0.01  -0.08
  49   1     0.01  -0.11  -0.05    -0.01  -0.01   0.03    -0.04  -0.02   0.11
  50   1     0.06  -0.12  -0.00    -0.03   0.04  -0.01    -0.08   0.05   0.02
  51   1     0.09  -0.11   0.05     0.01   0.00  -0.07     0.00  -0.00  -0.05
  52   1     0.08  -0.16  -0.00    -0.00   0.00  -0.02    -0.04  -0.00   0.06
  53   1     0.05  -0.10   0.01     0.03  -0.04  -0.03     0.05  -0.07   0.04
                      4                      5                      6
                        a                      a                      a 
 Frequencies --    33.5413                39.6960                61.9963
 Red. masses --    99.0000                99.0000                99.0000
 Frc consts  --    99.0000                99.0000                99.0000
 IR Inten    --    99.0000                99.0000                99.0000
 Raman Activ --     0.0000                 0.0000                 0.0000
 Depolar     --     0.0000                 0.0000                 0.0000
 Atom AN      X      Y      Z        X      Y      Z        X      Y      Z
   1   6     0.28   0.02   0.19     0.24   0.05  -0.01     0.07   0.02   0.02
   2   6     0.14  -0.04   0.04     0.12  -0.03  -0.02    -0.03   0.01  -0.25
   3   6     0.02   0.04  -0.06     0.00   0.05  -0.00     0.01   0.01   0.17
   4   6    -0.09  -0.01  -0.15    -0.10  -0.01  -0.00    -0.04   0.00   0.06
   5   6    -0.16   0.04  -0.18    -0.17   0.04   0.01    -0.04   0.01   0.10
   6   6    -0.20   0.01  -0.15    -0.20   0.01   0.03    -0.02   0.01   0.18
   7   6    -0.21   0.02  -0.11    -0.20   0.01   0.03    -0.04   0.01  -0.18
   8   6    -0.17   0.02  -0.00    -0.15   0.03   0.04     0.03   0.01   0.12
   9   6    -0.11  -0.02   0.05    -0.09  -0.01   0.03     0.02   0.01  -0.30
  10   6    -0.02   0.03   0.13     0.00   0.04   0.04     0.11   0.01   0.14
  11   6     0.07  -0.04   0.13     0.10  -0.03   0.01     0.18  -0.04   0.06
  12   6     0.13  -0.14   0.14     0.09  -0.09  -0.00    -0.07   0.05  -0.07
  13   6     0.11  -0.12   0.04     0.12  -0.10  -0.05    -0.04   0.04  -0.09
  14   6    -0.02   0.04   0.18     0.26  -0.16  -0.20    -0.03  -0.00  -0.10
  15   6     0.10  -0.05  -0.07     0.00   0.02   0.03     0.05  -0.05  -0.10
  16   6    -0.05   0.16   0.08     0.17  -0.06  -0.16    -0.13  -0.02   0.09
  17   6     0.12   0.03  -0.24    -0.22   0.21   0.21    -0.04  -0.07   0.13
  18   1     0.09  -0.01   0.06     0.08   0.03  -0.00     0.15   0.03   0.07
  19   1     0.08   0.05   0.06     0.07   0.04   0.00    -0.08  -0.01   0.11
  20   1     0.11  -0.01   0.07     0.10  -0.00  -0.01     0.01   0.01  -0.10
  21   1     0.03   0.00   0.01     0.03  -0.02  -0.01    -0.13  -0.01  -0.13
  22   1     0.05  -0.06   0.00     0.04  -0.03  -0.01     0.08   0.01  -0.17
  23   1     0.01   0.00  -0.02     0.00   0.03   0.00     0.09   0.03   0.10
  24   1     0.01   0.05  -0.02     0.00   0.03   0.00    -0.07  -0.02   0.12
  25   1    -0.03  -0.00  -0.05    -0.03  -0.02  -0.00    -0.04   0.01   0.00
  26   1    -0.02  -0.03  -0.05    -0.03  -0.02  -0.00     0.01  -0.01  -0.01
  27   1    -0.04   0.02  -0.06    -0.05   0.02   0.00    -0.00  -0.01   0.02
  28   1    -0.05   0.02  -0.06    -0.05   0.02   0.00    -0.02   0.01   0.02
  29   1    -0.06   0.01  -0.04    -0.06   0.00   0.01    -0.07  -0.02   0.11
  30   1    -0.06  -0.01  -0.04    -0.06   0.00   0.01     0.07   0.03   0.09
  31   1    -0.05  -0.01  -0.04    -0.06  -0.00   0.01     0.08   0.01  -0.14
  32   1    -0.07   0.02  -0.04    -0.06   0.00   0.01    -0.12   0.00  -0.11
  33   1    -0.05   0.03   0.01    -0.05   0.02   0.02    -0.10  -0.00   0.13
  34   1    -0.04  -0.00   0.00    -0.04   0.02   0.02     0.13   0.01   0.11
  35   1    -0.04   0.00   0.01    -0.03  -0.01   0.01    -0.13   0.01  -0.17
  36   1    -0.03  -0.03   0.01    -0.02  -0.02   0.00     0.12  -0.01  -0.19
  37   1     0.01   0.01   0.05     0.01   0.03   0.02     0.11  -0.03   0.10
  38   1    -0.01   0.03   0.05    -0.00   0.02   0.02    -0.05   0.05   0.11
  39   1     0.04   0.00   0.03     0.05   0.01   0.01     0.08  -0.01   0.08
  40   1     0.01  -0.02   0.04     0.03  -0.02   0.00     0.10  -0.04  -0.03
  41   1     0.04  -0.04   0.07     0.02  -0.03   0.00    -0.04   0.02  -0.08
  42   1     0.05  -0.06   0.03     0.02  -0.03   0.00    -0.07   0.04   0.02
  43   1     0.02  -0.03  -0.05     0.05  -0.03   0.03    -0.00   0.02  -0.02
  44   1     0.07  -0.08   0.02    -0.00  -0.02  -0.03    -0.02   0.01  -0.03
  45   1    -0.04   0.10   0.05     0.12  -0.14  -0.05    -0.01   0.01  -0.03
  46   1    -0.02  -0.02   0.14     0.11   0.00  -0.15    -0.02  -0.01  -0.02
  47   1     0.07  -0.11  -0.01    -0.06   0.11  -0.00     0.06  -0.05  -0.01
  48   1     0.04   0.02  -0.12    -0.04  -0.05   0.11     0.02  -0.00  -0.08
  49   1    -0.03   0.01   0.13     0.11   0.06  -0.18    -0.04  -0.02   0.08
  50   1    -0.06   0.16   0.02     0.11  -0.16  -0.04    -0.09   0.02   0.01
  51   1     0.06   0.05  -0.19    -0.13  -0.02   0.20    -0.01  -0.01  -0.02
  52   1     0.00   0.06  -0.04    -0.02   0.04   0.01    -0.05  -0.02   0.08
  53   1     0.08  -0.11  -0.06    -0.13   0.21   0.05     0.05  -0.05   0.06
                      7                      8                      9
                        a                      a                      a 
 Frequencies --    74.8105                56.5638               109.3432
 Red. masses --    99.0000                99.0000                99.0000
 Frc consts  --    99.0000                99.0000                99.0000
 IR Inten    --    99.0000                99.0000                99.0000
 Raman Activ --     0.0000                 0.0000                 0.0000
 Depolar     --     0.0000                 0.0000                 0.0000
 Atom AN      X      Y      Z        X      Y      Z        X      Y      Z
   1   6    -0.11  -0.02   0.15     0.08  -0.03  -0.27     0.07   0.00  -0.01
   2   6    -0.06   0.06  -0.17     0.04  -0.10  -0.02    -0.04  -0.04  -0.17
   3   6     0.05  -0.01  -0.03     0.00  -0.05   0.20    -0.03  -0.02   0.18
   4   6     0.11   0.03  -0.04    -0.05  -0.09   0.25    -0.02  -0.03   0.30
   5   6     0.11   0.02  -0.10    -0.08  -0.07   0.26    -0.09  -0.01  -0.24
   6   6     0.12  -0.01   0.19    -0.12  -0.06   0.04    -0.01  -0.00   0.02
   7   6     0.02   0.05  -0.10    -0.11  -0.06  -0.08     0.00  -0.02  -0.22
   8   6    -0.03  -0.02   0.16    -0.10  -0.03  -0.27     0.05  -0.00  -0.12
   9   6    -0.14   0.05  -0.14    -0.05  -0.05  -0.26     0.10  -0.02   0.38
  10   6    -0.20   0.01  -0.15    -0.00  -0.03  -0.16     0.02  -0.03  -0.04
  11   6    -0.24   0.04  -0.07     0.03  -0.07   0.01    -0.08   0.04  -0.02
  12   6     0.12  -0.15   0.10     0.07   0.07   0.06    -0.04   0.06  -0.00
  13   6     0.10  -0.14   0.10    -0.01   0.12   0.18    -0.02   0.05   0.03
  14   6     0.04  -0.05   0.18     0.00   0.13   0.17     0.05  -0.01  -0.05
  15   6    -0.06   0.01   0.16    -0.03   0.14   0.14     0.07  -0.02  -0.06
  16   6     0.15   0.02  -0.08     0.13   0.11  -0.03     0.00   0.02   0.01
  17   6     0.02   0.10  -0.16     0.17   0.07  -0.18    -0.01   0.03   0.02
  18   1     0.06  -0.04   0.09     0.02   0.05  -0.08     0.14   0.04   0.05
  19   1    -0.10  -0.02   0.12     0.03  -0.04  -0.09    -0.07  -0.03   0.09
  20   1    -0.06   0.01  -0.00     0.03  -0.02  -0.13     0.01  -0.00  -0.12
  21   1    -0.10   0.05  -0.09     0.01  -0.09  -0.01    -0.10  -0.03  -0.09
  22   1     0.04   0.02  -0.11     0.01   0.01  -0.00     0.06   0.00  -0.12
  23   1     0.04   0.00   0.01     0.03   0.02   0.07     0.02   0.04   0.07
  24   1    -0.01  -0.03   0.01    -0.02  -0.03   0.08    -0.03  -0.05   0.07
  25   1     0.04   0.02  -0.01    -0.02  -0.04   0.07     0.10   0.02   0.15
  26   1     0.02   0.01  -0.00    -0.01  -0.03   0.07    -0.09  -0.05   0.17
  27   1     0.08  -0.01  -0.07    -0.05   0.00   0.10     0.08   0.02  -0.18
  28   1    -0.02   0.03  -0.06     0.01  -0.04   0.09    -0.16  -0.03  -0.14
  29   1    -0.04  -0.01   0.13    -0.02  -0.05  -0.00    -0.08   0.01   0.08
  30   1     0.13  -0.02   0.10    -0.05   0.02   0.00     0.08  -0.00   0.05
  31   1     0.08   0.03  -0.10    -0.04   0.01  -0.01     0.04   0.00  -0.10
  32   1    -0.08   0.03  -0.08    -0.02  -0.05  -0.02    -0.05  -0.02  -0.09
  33   1    -0.08  -0.02   0.11    -0.00  -0.02  -0.10     0.07   0.06  -0.08
  34   1     0.08  -0.02   0.10    -0.06   0.02  -0.09    -0.06  -0.05  -0.08
  35   1    -0.09  -0.01  -0.07    -0.02  -0.01  -0.08     0.17  -0.01   0.20
  36   1     0.00   0.06  -0.08    -0.01  -0.03  -0.08    -0.10  -0.01   0.22
  37   1    -0.07  -0.01  -0.05    -0.01  -0.03  -0.06    -0.07   0.03  -0.06
  38   1    -0.04   0.00  -0.05     0.01   0.02  -0.05     0.07  -0.06  -0.07
  39   1    -0.09   0.02  -0.11     0.01  -0.02   0.03    -0.05   0.00  -0.03
  40   1    -0.13   0.05   0.04     0.00  -0.05   0.00    -0.03   0.04   0.01
  41   1     0.05  -0.05   0.12     0.04   0.04   0.01    -0.02   0.02  -0.00
  42   1     0.10  -0.08  -0.03     0.03   0.03   0.01    -0.01   0.03  -0.00
  43   1     0.02  -0.04  -0.00    -0.02   0.01   0.07     0.00   0.01   0.03
  44   1     0.05  -0.05   0.04    -0.01   0.06   0.06    -0.02   0.03   0.00
  45   1    -0.00  -0.02   0.05     0.01   0.03   0.05     0.03  -0.01  -0.01
  46   1     0.03  -0.00   0.07     0.00   0.04   0.04     0.00  -0.01  -0.03
  47   1    -0.08   0.04   0.03    -0.05   0.06   0.03     0.04  -0.02  -0.01
  48   1    -0.02  -0.01   0.10    -0.00   0.04   0.08     0.02  -0.00  -0.04
  49   1     0.05   0.03  -0.08     0.02   0.02  -0.04     0.01   0.01   0.02
  50   1     0.11  -0.03   0.00     0.08   0.04   0.01    -0.02   0.02  -0.00
  51   1    -0.00   0.01   0.02     0.07   0.03  -0.03    -0.01   0.01  -0.02
  52   1     0.06   0.03  -0.10     0.08   0.01  -0.09    -0.02   0.02   0.03
  53   1    -0.07   0.06  -0.08     0.01   0.01  -0.07     0.02  -0.00   0.01
                     10                     11                     12
                        a                      a                      a 
 Frequencies --    80.7100               120.2876               105.0700
 Red. masses --    99.0000                99.0000                99.0000
 Frc consts  --    99.0000                99.0000                99.0000
 IR Inten    --    99.0000                99.0000                99.0000
 Raman Activ --     0.0000                 0.0000                 0.0000
 Depolar     --     0.0000                 0.0000                 0.0000
 Atom AN      X      Y      Z        X      Y      Z        X      Y      Z
   1   6    -0.21   0.03  -0.18     0.09   0.03  -0.00     0.01   0.07  -0.12
   2   6    -0.01   0.11   0.09    -0.01  -0.03  -0.00     0.01   0.03   0.07
   3   6     0.14   0.02   0.23    -0.08   0.01  -0.02     0.02   0.04   0.22
   4   6     0.20   0.07   0.12    -0.09   0.00   0.01    -0.02   0.04   0.04
   5   6     0.20   0.06   0.06    -0.05  -0.03   0.04    -0.03   0.04  -0.06
   6   6     0.09   0.04  -0.25     0.01   0.02   0.01    -0.03   0.05  -0.18
   7   6     0.00   0.10  -0.22     0.07  -0.02  -0.01     0.00   0.03  -0.15
   8   6    -0.10   0.04  -0.18     0.10  -0.01  -0.04     0.06   0.02   0.11
   9   6    -0.14   0.06  -0.02     0.07   0.01  -0.05     0.08   0.00   0.13
  10   6    -0.11   0.05   0.19     0.01  -0.03  -0.02     0.09   0.01   0.12
  11   6    -0.05   0.00   0.16    -0.07   0.03   0.02     0.11  -0.00  -0.03
  12   6    -0.04  -0.12   0.14    -0.03   0.03   0.04     0.15  -0.19  -0.05
  13   6     0.05  -0.17   0.03    -0.03   0.03   0.04     0.03  -0.12  -0.23
  14   6     0.09  -0.18  -0.02    -0.24   0.15   0.28    -0.25   0.16   0.07
  15   6     0.09  -0.19  -0.11     0.23  -0.17  -0.23    -0.27   0.18   0.14
  16   6    -0.01  -0.01  -0.01     0.21  -0.13  -0.21    -0.05  -0.13  -0.10
  17   6    -0.16   0.08  -0.01    -0.17   0.12   0.15     0.07  -0.20   0.04
  18   1    -0.09   0.04  -0.07     0.02   0.02  -0.00    -0.00   0.06  -0.04
  19   1    -0.05  -0.06  -0.08     0.03   0.03  -0.00     0.01  -0.01  -0.05
  20   1    -0.10   0.03  -0.08     0.05  -0.01   0.00     0.00   0.02  -0.07
  21   1     0.01   0.00   0.03     0.00  -0.02   0.00     0.00  -0.03   0.02
  22   1    -0.01   0.10   0.04    -0.01  -0.03   0.00     0.00   0.04   0.02
  23   1     0.08  -0.01   0.09    -0.03   0.01  -0.01     0.06   0.01   0.09
  24   1     0.01  -0.02   0.10    -0.02   0.01  -0.01    -0.03   0.02   0.10
  25   1     0.04   0.04   0.03    -0.03  -0.00  -0.00    -0.02   0.04   0.00
  26   1     0.07   0.01   0.02    -0.02   0.01  -0.00     0.01  -0.02  -0.00
  27   1     0.02   0.06   0.06    -0.02  -0.02   0.02    -0.01   0.03  -0.01
  28   1     0.10  -0.02   0.04    -0.00  -0.01   0.02    -0.00  -0.01  -0.02
  29   1     0.07  -0.03  -0.11     0.01   0.01  -0.00     0.01   0.01  -0.07
  30   1    -0.02   0.03  -0.10     0.00   0.02   0.00    -0.03   0.03  -0.06
  31   1    -0.00   0.04  -0.06     0.02  -0.01  -0.00     0.03  -0.02  -0.07
  32   1     0.00   0.05  -0.06     0.02  -0.02  -0.00    -0.03   0.04  -0.06
  33   1    -0.01   0.02  -0.06     0.03  -0.01  -0.01    -0.01   0.04   0.06
  34   1    -0.05  -0.02  -0.06     0.03   0.00  -0.01     0.05  -0.02   0.05
  35   1    -0.05   0.06  -0.01     0.01   0.01  -0.02     0.02  -0.00   0.04
  36   1    -0.03  -0.01  -0.01     0.03   0.01  -0.02     0.02  -0.00   0.04
  37   1    -0.00  -0.00   0.08     0.00  -0.03  -0.01     0.05   0.02   0.05
  38   1    -0.06   0.04   0.08     0.00  -0.01  -0.00     0.01  -0.01   0.05
  39   1     0.00   0.02   0.03    -0.04  -0.00  -0.01     0.03   0.01  -0.05
  40   1    -0.02  -0.00   0.05    -0.03   0.02   0.01     0.02   0.03   0.00
  41   1    -0.02  -0.05   0.05    -0.00   0.01   0.02     0.07  -0.05   0.05
  42   1    -0.01  -0.04   0.04     0.00   0.00   0.00     0.06  -0.12  -0.03
  43   1     0.03  -0.03   0.00    -0.02   0.02  -0.07    -0.03  -0.03  -0.18
  44   1     0.01  -0.08  -0.00     0.06  -0.04   0.03     0.08  -0.10  -0.05
  45   1     0.04  -0.04  -0.00    -0.15   0.24   0.07    -0.14   0.08  -0.00
  46   1     0.02  -0.06  -0.00    -0.14  -0.05   0.25    -0.04   0.05   0.10
  47   1     0.05  -0.09  -0.02     0.09  -0.21  -0.08    -0.14   0.11   0.02
  48   1     0.02  -0.05  -0.08     0.15   0.04  -0.17    -0.06   0.05   0.13
  49   1     0.03   0.02   0.03     0.13   0.03  -0.12    -0.05  -0.04  -0.13
  50   1    -0.03   0.00  -0.01     0.06  -0.14  -0.07     0.05  -0.10  -0.01
  51   1    -0.08   0.00  -0.04    -0.11  -0.04   0.16     0.07  -0.05   0.14
  52   1    -0.07   0.07   0.02    -0.02   0.02   0.01     0.08  -0.15  -0.06
  53   1    -0.02   0.02   0.01    -0.10   0.18   0.04    -0.06   0.01  -0.02
                     13                     14                     15
                        a                      a                      a 
 Frequencies --   119.2972               146.0840               149.9408
 Red. masses --    99.0000                99.0000                99.0000
 Frc consts  --    99.0000                99.0000                99.0000
 IR Inten    --    99.0000                99.0000                99.0000
 Raman Activ --     0.0000                 0.0000                 0.0000
 Depolar     --     0.0000                 0.0000                 0.0000
 Atom AN      X      Y      Z        X      Y      Z        X      Y      Z
   1   6     0.11   0.04  -0.18     0.00  -0.04   0.03    -0.03   0.07  -0.09
   2   6     0.01  -0.08   0.18     0.01  -0.04   0.03     0.03   0.06   0.15
   3   6    -0.08  -0.01   0.28    -0.03  -0.03  -0.16     0.05   0.05   0.21
   4   6    -0.18  -0.00  -0.16    -0.03  -0.02  -0.18    -0.04   0.07  -0.34
   5   6    -0.12  -0.04  -0.07     0.05  -0.05   0.38    -0.02   0.05  -0.17
   6   6    -0.02   0.03  -0.17     0.03  -0.03   0.18     0.05   0.01   0.39
   7   6     0.09  -0.04  -0.09    -0.06   0.02  -0.42     0.02   0.01   0.06
   8   6     0.19  -0.04   0.33    -0.02  -0.00  -0.07    -0.02   0.02  -0.25
   9   6     0.11   0.01   0.01     0.00  -0.00   0.24     0.03  -0.02   0.01
  10   6    -0.03  -0.06  -0.12    -0.02   0.01   0.02     0.06  -0.01  -0.01
  11   6    -0.22   0.08  -0.10    -0.07   0.05   0.02     0.12  -0.07   0.02
  12   6    -0.07   0.08  -0.00     0.04  -0.02   0.06    -0.04   0.01  -0.06
  13   6    -0.00   0.04   0.11    -0.02   0.02  -0.02     0.02  -0.04   0.01
  14   6     0.12  -0.10  -0.02     0.03   0.08  -0.09    -0.05  -0.09   0.09
  15   6     0.07  -0.07   0.02     0.02   0.09  -0.08    -0.05  -0.10   0.08
  16   6     0.03   0.06   0.06    -0.02   0.02  -0.03    -0.01  -0.04   0.02
  17   6    -0.02   0.08  -0.07     0.07  -0.03   0.09    -0.10   0.00  -0.10
  18   1    -0.03   0.07  -0.08    -0.07  -0.05  -0.02    -0.07   0.04  -0.05
  19   1     0.08   0.00  -0.11     0.05   0.03  -0.04     0.04   0.01  -0.08
  20   1     0.06  -0.01  -0.05     0.02  -0.02   0.09    -0.00   0.02  -0.00
  21   1     0.04  -0.09   0.07     0.04   0.01   0.03     0.03  -0.01   0.05
  22   1    -0.02  -0.00   0.08    -0.03  -0.03   0.04    -0.01   0.05   0.06
  23   1     0.06  -0.03   0.12    -0.03  -0.03  -0.06     0.12  -0.04   0.11
  24   1    -0.08   0.04   0.15     0.01   0.01  -0.06    -0.06   0.06   0.14
  25   1    -0.14   0.04  -0.09    -0.11  -0.05  -0.11    -0.12   0.06  -0.15
  26   1     0.02  -0.03  -0.12     0.07   0.05  -0.13     0.08  -0.02  -0.19
  27   1    -0.06  -0.03   0.01    -0.08  -0.05   0.20     0.04  -0.05  -0.10
  28   1     0.00  -0.03   0.00     0.13   0.01   0.17    -0.07   0.09  -0.08
  29   1     0.02   0.03  -0.07    -0.05  -0.09   0.10    -0.10   0.03   0.23
  30   1    -0.03   0.02  -0.06     0.08   0.07   0.09     0.15  -0.03   0.19
  31   1     0.07  -0.08  -0.07     0.11   0.03  -0.24     0.01   0.07   0.01
  32   1    -0.03   0.03  -0.05    -0.17  -0.01  -0.21    -0.01  -0.06   0.01
  33   1    -0.04   0.00   0.19    -0.01   0.06  -0.01     0.07   0.00  -0.14
  34   1     0.17  -0.03   0.16     0.00  -0.07  -0.02    -0.09   0.02  -0.12
  35   1    -0.00  -0.03  -0.02     0.08   0.01   0.12     0.06   0.01   0.04
  36   1     0.06   0.06  -0.02    -0.07  -0.01   0.13    -0.04  -0.03   0.04
  37   1    -0.03  -0.02  -0.05    -0.04   0.02  -0.02     0.01   0.00  -0.01
  38   1     0.01  -0.05  -0.05     0.03  -0.02  -0.03     0.02   0.01  -0.01
  39   1    -0.11   0.00  -0.08    -0.04   0.01  -0.03     0.06  -0.02   0.05
  40   1    -0.09   0.07   0.01    -0.04   0.04   0.03     0.06  -0.06  -0.03
  41   1    -0.03   0.01   0.01     0.03  -0.00   0.06    -0.03  -0.00  -0.07
  42   1     0.01   0.04  -0.02     0.03  -0.04   0.00    -0.04   0.04   0.01
  43   1     0.02   0.01   0.08    -0.01  -0.00  -0.00     0.01  -0.00  -0.01
  44   1    -0.03   0.05   0.03    -0.03   0.00  -0.02     0.03  -0.01   0.01
  45   1     0.07  -0.07   0.01     0.02   0.01  -0.02    -0.03  -0.02   0.02
  46   1     0.03  -0.02  -0.06     0.01   0.03  -0.04    -0.02  -0.03   0.04
  47   1     0.03  -0.02   0.01     0.02   0.03  -0.02    -0.03  -0.03   0.02
  48   1     0.00  -0.03  -0.01     0.01   0.03  -0.02    -0.02  -0.03   0.03
  49   1     0.02   0.02   0.06    -0.02  -0.00  -0.00     0.01  -0.00   0.00
  50   1    -0.00   0.05   0.02    -0.02   0.00  -0.02     0.02  -0.01   0.02
  51   1    -0.02   0.02  -0.07     0.03   0.00   0.02    -0.04  -0.01  -0.02
  52   1    -0.02   0.07   0.00     0.00  -0.03   0.05    -0.01   0.03  -0.05
  53   1     0.02  -0.02  -0.01     0.05  -0.00   0.04    -0.06  -0.00  -0.04
                     16                     17                     18
                        a                      a                      a 
 Frequencies --   128.3180               233.9485               157.7346
 Red. masses --    99.0000                99.0000                99.0000
 Frc consts  --    99.0000                99.0000                99.0000
 IR Inten    --    99.0000                99.0000                99.0000
 Raman Activ --     0.0000                 0.0000                 0.0000
 Depolar     --     0.0000                 0.0000                 0.0000
 Atom AN      X      Y      Z        X      Y      Z        X      Y      Z
   1   6     0.21   0.20   0.06    -0.00   0.00  -0.05     0.06   0.01  -0.05
   2   6    -0.06   0.06  -0.07     0.04  -0.02   0.26    -0.02  -0.06   0.04
   3   6    -0.22   0.16  -0.14    -0.03   0.00  -0.13    -0.07  -0.02   0.11
   4   6    -0.20   0.12   0.13    -0.02   0.01  -0.10    -0.09  -0.00  -0.06
   5   6    -0.07   0.02   0.17     0.01  -0.01   0.02    -0.04  -0.04  -0.15
   6   6     0.08   0.12   0.01     0.01  -0.00   0.02     0.07  -0.00   0.10
   7   6     0.22   0.01  -0.07     0.01   0.00  -0.01     0.11  -0.02   0.14
   8   6     0.23   0.02  -0.22    -0.00  -0.00  -0.00     0.05  -0.02  -0.17
   9   6     0.18   0.04  -0.10    -0.01   0.00   0.00    -0.04   0.04  -0.17
  10   6     0.04  -0.07   0.08    -0.01   0.01  -0.00    -0.11  -0.02   0.08
  11   6    -0.09   0.00   0.05     0.01  -0.00   0.00    -0.20   0.05   0.13
  12   6    -0.03  -0.12   0.06     0.00   0.00  -0.00     0.12  -0.17   0.27
  13   6     0.01  -0.16   0.02     0.00  -0.00  -0.00    -0.09  -0.03   0.00
  14   6     0.01  -0.21   0.02    -0.01   0.00   0.01     0.08   0.16  -0.21
  15   6    -0.15  -0.11   0.13    -0.01   0.01   0.01     0.04   0.19  -0.23
  16   6    -0.09  -0.04   0.05     0.02  -0.01  -0.02    -0.07   0.04  -0.09
  17   6    -0.11  -0.04  -0.17    -0.00   0.00   0.00     0.16  -0.08   0.22
  18   1     0.08   0.07   0.03     0.37   0.28   0.16     0.02   0.03  -0.01
  19   1     0.05   0.12   0.03    -0.29  -0.30   0.26     0.02   0.01  -0.02
  20   1     0.12   0.02   0.02    -0.10   0.03  -0.54     0.04  -0.01  -0.03
  21   1    -0.02   0.01  -0.02     0.11  -0.01   0.12    -0.01  -0.04   0.01
  22   1    -0.01  -0.04  -0.03    -0.06  -0.01   0.15    -0.01  -0.02   0.01
  23   1    -0.12   0.08  -0.07    -0.10  -0.03  -0.08     0.02  -0.02   0.05
  24   1    -0.02   0.04  -0.09     0.06   0.04  -0.11    -0.05   0.01   0.06
  25   1    -0.02   0.01   0.05    -0.02  -0.01  -0.04    -0.04   0.03  -0.02
  26   1    -0.08   0.08   0.06     0.00   0.02  -0.04    -0.01  -0.02  -0.03
  27   1    -0.04  -0.01   0.07    -0.02  -0.02   0.02     0.03  -0.04  -0.09
  28   1     0.01  -0.02   0.06     0.03   0.01   0.02    -0.06   0.00  -0.07
  29   1     0.04   0.04  -0.01     0.00  -0.00   0.01    -0.00   0.04   0.06
  30   1     0.01   0.08  -0.00     0.01   0.00   0.01     0.05  -0.02   0.04
  31   1     0.05   0.01  -0.01     0.01   0.00  -0.01    -0.01   0.02   0.09
  32   1     0.08  -0.03  -0.01    -0.00   0.00  -0.01     0.09  -0.04   0.07
  33   1     0.10  -0.00  -0.09    -0.00  -0.00  -0.00     0.05  -0.05  -0.09
  34   1     0.03   0.01  -0.09    -0.00  -0.00  -0.00    -0.03   0.02  -0.07
  35   1     0.04   0.05  -0.03    -0.00   0.00   0.00    -0.05   0.05  -0.07
  36   1     0.06   0.00  -0.04    -0.00   0.00   0.00     0.02   0.00  -0.08
  37   1     0.04  -0.06   0.04    -0.00   0.00  -0.00    -0.01  -0.05   0.04
  38   1    -0.02  -0.03   0.05    -0.00   0.00  -0.00    -0.06   0.01   0.04
  39   1    -0.05  -0.00  -0.02     0.01   0.00   0.00    -0.10   0.01  -0.05
  40   1    -0.04   0.04   0.03     0.00  -0.00  -0.00    -0.12   0.07   0.10
  41   1    -0.01  -0.04   0.04    -0.00  -0.00  -0.00     0.09  -0.03   0.20
  42   1    -0.00  -0.04   0.01    -0.00   0.00   0.00     0.10  -0.16   0.02
  43   1     0.02  -0.04   0.01     0.00   0.00  -0.00    -0.05  -0.03   0.02
  44   1     0.01  -0.05   0.01     0.00  -0.00  -0.00    -0.09  -0.02  -0.03
  45   1     0.01  -0.10   0.01    -0.00   0.00   0.00     0.07   0.03  -0.05
  46   1     0.03  -0.04  -0.03    -0.00   0.00   0.00     0.04   0.06  -0.09
  47   1    -0.06   0.01   0.03    -0.01   0.01   0.00     0.03   0.06  -0.06
  48   1    -0.07  -0.06   0.07    -0.00   0.00   0.02     0.01   0.06  -0.07
  49   1    -0.03  -0.02   0.02     0.01   0.00  -0.02    -0.04  -0.01  -0.02
  50   1    -0.00   0.02   0.03     0.01  -0.01  -0.00    -0.07  -0.00  -0.05
  51   1    -0.03  -0.01  -0.07    -0.02  -0.00  -0.05     0.08   0.00   0.04
  52   1    -0.02   0.02  -0.07    -0.04   0.03   0.04    -0.01  -0.09   0.12
  53   1    -0.05  -0.05  -0.06     0.05  -0.02   0.02     0.13  -0.01   0.10
                     19                     20                     21
                        a                      a                      a 
 Frequencies --   233.6981               193.3696               215.5827
 Red. masses --    99.0000                99.0000                99.0000
 Frc consts  --    99.0000                99.0000                99.0000
 IR Inten    --    99.0000                99.0000                99.0000
 Raman Activ --     0.0000                 0.0000                 0.0000
 Depolar     --     0.0000                 0.0000                 0.0000
 Atom AN      X      Y      Z        X      Y      Z        X      Y      Z
   1   6     0.01  -0.02   0.00     0.03  -0.26  -0.02     0.20   0.13  -0.03
   2   6    -0.01  -0.03  -0.03    -0.00  -0.27  -0.01    -0.19  -0.12   0.03
   3   6    -0.01  -0.02   0.02    -0.06  -0.21   0.01    -0.30  -0.04   0.06
   4   6    -0.00  -0.01   0.01    -0.04  -0.16  -0.02    -0.10   0.08   0.01
   5   6     0.01  -0.01  -0.00    -0.04  -0.12  -0.02     0.20  -0.12  -0.05
   6   6     0.02   0.00  -0.00     0.05  -0.02   0.03     0.34  -0.05  -0.06
   7   6     0.00   0.02   0.00     0.04   0.04   0.02     0.16   0.07  -0.02
   8   6    -0.01   0.02   0.00     0.03   0.10  -0.11    -0.15  -0.11   0.08
   9   6    -0.01   0.02   0.01    -0.04   0.19  -0.00    -0.33   0.01   0.08
  10   6     0.00   0.03   0.01    -0.04   0.20   0.27    -0.19   0.12  -0.07
  11   6     0.03   0.02  -0.02    -0.12   0.31  -0.02     0.18  -0.13   0.04
  12   6     0.02  -0.00  -0.02    -0.14   0.15  -0.08    -0.02   0.01  -0.05
  13   6    -0.00   0.01  -0.01     0.21  -0.03  -0.21     0.04  -0.01  -0.04
  14   6    -0.07   0.03   0.07     0.03  -0.02   0.02     0.01   0.03   0.00
  15   6    -0.08   0.04   0.10     0.00   0.02   0.13     0.01   0.04  -0.00
  16   6     0.16  -0.13  -0.17     0.06   0.04   0.07     0.01   0.04   0.00
  17   6    -0.05   0.01   0.01     0.03   0.05  -0.04     0.05   0.02   0.03
  18   1    -0.04  -0.04  -0.02     0.01  -0.07  -0.01     0.05   0.10  -0.01
  19   1     0.04   0.03  -0.03     0.01  -0.07  -0.01     0.07   0.11  -0.01
  20   1     0.02  -0.01   0.06     0.01  -0.08  -0.01     0.15  -0.03  -0.01
  21   1    -0.01  -0.01  -0.01    -0.00  -0.09  -0.00    -0.05  -0.07   0.01
  22   1     0.00  -0.01  -0.02    -0.00  -0.09  -0.00    -0.05  -0.07   0.00
  23   1     0.01  -0.00   0.01    -0.01  -0.06   0.00    -0.08  -0.02   0.02
  24   1    -0.01  -0.01   0.01    -0.02  -0.06   0.01    -0.09  -0.02   0.02
  25   1     0.00   0.00   0.00    -0.02  -0.04  -0.01    -0.03   0.07   0.01
  26   1    -0.00  -0.00   0.00    -0.01  -0.05  -0.01    -0.02   0.06   0.00
  27   1     0.00  -0.00  -0.00    -0.00  -0.05  -0.01     0.06  -0.07  -0.01
  28   1    -0.00  -0.00  -0.00    -0.02  -0.04  -0.01     0.06  -0.07  -0.02
  29   1     0.00   0.00  -0.00     0.00   0.00   0.02     0.10  -0.02  -0.02
  30   1     0.00   0.00  -0.00     0.03  -0.01   0.02     0.09  -0.02  -0.02
  31   1     0.00   0.01   0.00    -0.00   0.03   0.02     0.05   0.05  -0.01
  32   1     0.00   0.01   0.00     0.03  -0.00   0.01     0.04   0.07  -0.01
  33   1    -0.00   0.00  -0.00     0.04   0.02  -0.06    -0.06  -0.07   0.03
  34   1    -0.00   0.00  -0.00    -0.03   0.03  -0.05    -0.03  -0.08   0.03
  35   1    -0.00   0.01   0.00    -0.04   0.10  -0.02    -0.07  -0.01   0.04
  36   1    -0.00   0.00   0.00     0.02   0.03  -0.03    -0.11   0.02   0.04
  37   1     0.01   0.01   0.01     0.08   0.05   0.14    -0.09   0.08  -0.05
  38   1    -0.00   0.01   0.01    -0.10   0.04   0.15    -0.01   0.08  -0.05
  39   1     0.01   0.01  -0.01    -0.06   0.08  -0.05     0.14  -0.00   0.12
  40   1     0.01   0.00  -0.01    -0.03   0.15  -0.01     0.09  -0.16  -0.04
  41   1     0.01   0.00  -0.00    -0.10  -0.01  -0.03    -0.03  -0.00  -0.09
  42   1     0.01  -0.01  -0.01    -0.05   0.09  -0.01    -0.05   0.05   0.02
  43   1    -0.01   0.00  -0.02     0.11   0.06  -0.16     0.01   0.00  -0.03
  44   1     0.02  -0.00   0.00     0.13  -0.11  -0.05     0.02  -0.01  -0.01
  45   1    -0.04   0.01   0.01    -0.04   0.00  -0.01    -0.01   0.02  -0.00
  46   1    -0.01   0.01   0.03     0.02  -0.00   0.04     0.01   0.01   0.02
  47   1    -0.10   0.07   0.00    -0.01   0.03   0.04     0.00   0.01  -0.00
  48   1    -0.01  -0.00   0.13    -0.01  -0.01   0.06     0.00   0.01  -0.00
  49   1     0.07   0.00  -0.14     0.02   0.01   0.01     0.00   0.01  -0.00
  50   1     0.10  -0.12  -0.03     0.04   0.02   0.03     0.00   0.01  -0.00
  51   1    -0.17  -0.01  -0.47     0.02   0.01   0.02     0.03   0.01   0.03
  52   1    -0.34   0.24   0.36     0.05   0.02  -0.05     0.03  -0.01  -0.00
  53   1     0.41  -0.18   0.17    -0.04   0.02  -0.03     0.00   0.02   0.00
                     22                     23                     24
                        a                      a                      a 
 Frequencies --   271.1705               259.1329               318.4405
 Red. masses --    99.0000                99.0000                99.0000
 Frc consts  --    99.0000                99.0000                99.0000
 IR Inten    --    99.0000                99.0000                99.0000
 Raman Activ --     0.0000                 0.0000                 0.0000
 Depolar     --     0.0000                 0.0000                 0.0000
 Atom AN      X      Y      Z        X      Y      Z        X      Y      Z
   1   6    -0.05  -0.13   0.00     0.02  -0.22  -0.02     0.09   0.20  -0.01
   2   6     0.09  -0.03  -0.02     0.01  -0.20  -0.01    -0.23  -0.02   0.04
   3   6     0.07  -0.01  -0.01    -0.05  -0.12   0.00    -0.12  -0.11   0.01
   4   6    -0.03  -0.05   0.01    -0.02  -0.06  -0.00     0.17   0.04  -0.03
   5   6    -0.12   0.03   0.02    -0.03   0.00   0.00     0.25  -0.03  -0.04
   6   6    -0.05   0.09  -0.00     0.05   0.10  -0.01    -0.03  -0.19  -0.00
   7   6     0.07   0.03  -0.00     0.03   0.16   0.01    -0.27  -0.03   0.04
   8   6     0.14   0.07   0.04     0.03   0.19   0.03    -0.13   0.06   0.02
   9   6     0.07   0.11  -0.06     0.00   0.22   0.00     0.16  -0.11  -0.07
  10   6    -0.05   0.08  -0.33     0.04   0.25  -0.10     0.23  -0.04  -0.10
  11   6     0.04  -0.04   0.37     0.21   0.09   0.03    -0.07   0.17   0.18
  12   6    -0.18   0.07   0.27     0.32  -0.06   0.07     0.02   0.14   0.22
  13   6     0.15  -0.14  -0.12    -0.17   0.15   0.14     0.05   0.11  -0.15
  14   6     0.03  -0.02  -0.03    -0.07  -0.05  -0.02    -0.01   0.06  -0.11
  15   6    -0.08   0.05  -0.05    -0.03  -0.13  -0.02     0.05  -0.01   0.06
  16   6    -0.07   0.00  -0.07    -0.11  -0.17   0.03     0.00  -0.13   0.09
  17   6     0.00  -0.04   0.02    -0.23  -0.13  -0.13    -0.15  -0.07  -0.10
  18   1    -0.02  -0.07  -0.00     0.00  -0.07  -0.00     0.04   0.12   0.00
  19   1    -0.02  -0.07  -0.00     0.00  -0.07  -0.00     0.03   0.12   0.00
  20   1    -0.05  -0.01   0.01    -0.00  -0.06  -0.00     0.12  -0.01  -0.02
  21   1     0.02  -0.00  -0.01     0.00  -0.07  -0.00    -0.06  -0.02   0.01
  22   1     0.03  -0.00  -0.01     0.00  -0.07  -0.00    -0.06  -0.02   0.01
  23   1     0.02   0.01  -0.00    -0.01  -0.03   0.00    -0.04  -0.07   0.00
  24   1     0.02   0.01  -0.00    -0.01  -0.03  -0.00    -0.03  -0.07  -0.00
  25   1    -0.01  -0.03   0.00    -0.01  -0.02  -0.00     0.05   0.04  -0.01
  26   1    -0.01  -0.03   0.00    -0.01  -0.02   0.00     0.05   0.04  -0.01
  27   1    -0.04   0.01   0.01    -0.01  -0.00   0.00     0.07   0.01  -0.01
  28   1    -0.03   0.01   0.01    -0.01  -0.00   0.00     0.07   0.01  -0.01
  29   1    -0.01   0.05  -0.00     0.02   0.03  -0.00    -0.01  -0.10  -0.00
  30   1    -0.02   0.04  -0.00     0.01   0.03  -0.00    -0.01  -0.10  -0.00
  31   1     0.02  -0.01  -0.01     0.01   0.05  -0.00    -0.07  -0.00   0.01
  32   1     0.01   0.00  -0.01     0.01   0.05   0.00    -0.07  -0.00   0.01
  33   1     0.02   0.01   0.03     0.00   0.05   0.01    -0.04   0.05   0.01
  34   1     0.07   0.03   0.03     0.02   0.06   0.01    -0.03   0.06   0.01
  35   1     0.06  -0.00   0.01     0.01   0.05   0.01     0.04  -0.07  -0.02
  36   1    -0.01   0.08   0.01    -0.01   0.08   0.01     0.04  -0.06  -0.02
  37   1    -0.18  -0.03  -0.21    -0.03   0.09  -0.06     0.01  -0.05  -0.07
  38   1     0.14   0.08  -0.22     0.05   0.10  -0.06     0.11  -0.01  -0.06
  39   1     0.06  -0.01   0.22     0.10   0.06  -0.01    -0.10   0.00   0.00
  40   1     0.03  -0.15   0.07     0.03  -0.01   0.03    -0.06   0.11   0.09
  41   1    -0.12  -0.03   0.01     0.18   0.04   0.11     0.01   0.03   0.12
  42   1    -0.12   0.07   0.14     0.13  -0.14  -0.01     0.01  -0.03   0.06
  43   1     0.10   0.04  -0.15    -0.10  -0.03   0.15     0.04   0.07  -0.11
  44   1     0.09  -0.19  -0.05    -0.11   0.16   0.04     0.03  -0.06  -0.06
  45   1    -0.02   0.01  -0.02     0.02  -0.04   0.01    -0.03   0.00  -0.04
  46   1     0.03   0.00   0.03    -0.04  -0.02  -0.06    -0.01   0.01  -0.03
  47   1    -0.04   0.03  -0.02     0.01  -0.05  -0.00     0.03   0.02   0.03
  48   1    -0.04  -0.00   0.00     0.00  -0.03  -0.02     0.03   0.00   0.03
  49   1    -0.03  -0.01  -0.03    -0.02  -0.05   0.02     0.01  -0.03   0.03
  50   1    -0.02  -0.01  -0.02    -0.04  -0.03   0.01     0.00  -0.03   0.03
  51   1     0.01  -0.00   0.00    -0.09  -0.05  -0.02    -0.08  -0.04  -0.05
  52   1    -0.01  -0.04   0.02    -0.03   0.00  -0.08    -0.02   0.05  -0.05
  53   1     0.02  -0.01   0.02    -0.12  -0.04  -0.06    -0.08  -0.04  -0.05
                     25                     26                     27
                        a                      a                      a 
 Frequencies --   340.2371               378.8571               408.2753
 Red. masses --    99.0000                99.0000                99.0000
 Frc consts  --    99.0000                99.0000                99.0000
 IR Inten    --    99.0000                99.0000                99.0000
 Raman Activ --     0.0000                 0.0000                 0.0000
 Depolar     --     0.0000                 0.0000                 0.0000
 Atom AN      X      Y      Z        X      Y      Z        X      Y      Z
   1   6     0.07  -0.03  -0.01    -0.04   0.19   0.02     0.02   0.30   0.01
   2   6    -0.13  -0.14   0.02     0.04   0.20   0.00    -0.21   0.09   0.04
   3   6    -0.11  -0.12   0.01     0.12   0.07  -0.02     0.11  -0.19  -0.03
   4   6     0.13   0.05  -0.02    -0.09  -0.13   0.01     0.19  -0.20  -0.04
   5   6     0.14   0.08  -0.01    -0.07  -0.21  -0.00    -0.04  -0.07   0.00
   6   6    -0.02   0.02   0.01     0.01  -0.19  -0.01    -0.20  -0.14   0.02
   7   6    -0.16   0.13   0.03     0.07  -0.22  -0.02    -0.04  -0.19  -0.01
   8   6    -0.04   0.20   0.01     0.03  -0.18  -0.01     0.27   0.05  -0.03
   9   6     0.17   0.04  -0.02    -0.14   0.02   0.02     0.03   0.27   0.01
  10   6     0.13  -0.01  -0.03    -0.00   0.17   0.03    -0.17   0.20  -0.01
  11   6    -0.00   0.03  -0.08     0.05   0.20  -0.01     0.07   0.01   0.02
  12   6    -0.06  -0.01  -0.09     0.14   0.21   0.04    -0.02  -0.13  -0.06
  13   6     0.10  -0.16   0.28     0.26   0.10   0.15    -0.15  -0.06  -0.04
  14   6     0.09  -0.17   0.24     0.16  -0.01   0.15    -0.11  -0.09  -0.03
  15   6    -0.22   0.00  -0.19    -0.13   0.06  -0.15    -0.01  -0.09   0.05
  16   6    -0.20   0.13  -0.27    -0.23  -0.10  -0.15     0.08   0.10   0.01
  17   6     0.11  -0.03   0.13    -0.17  -0.19  -0.04     0.14   0.11   0.05
  18   1     0.02   0.03  -0.00    -0.01   0.05   0.01     0.01   0.15   0.01
  19   1     0.02   0.03  -0.00    -0.01   0.05   0.00     0.01   0.16   0.01
  20   1     0.07  -0.04  -0.02    -0.02   0.06   0.01     0.10   0.02  -0.02
  21   1    -0.04  -0.06   0.01     0.01   0.08   0.00    -0.05   0.04   0.01
  22   1    -0.04  -0.06   0.00     0.01   0.08   0.00    -0.06   0.04   0.01
  23   1    -0.03  -0.06   0.00     0.03   0.03  -0.00     0.03  -0.10  -0.01
  24   1    -0.03  -0.06  -0.00     0.03   0.03  -0.00     0.03  -0.10  -0.01
  25   1     0.03   0.04  -0.01    -0.02  -0.06   0.00     0.05  -0.08  -0.01
  26   1     0.04   0.04  -0.00    -0.03  -0.06   0.00     0.05  -0.08  -0.01
  27   1     0.04   0.04  -0.00    -0.02  -0.08  -0.00    -0.01   0.01   0.00
  28   1     0.04   0.04  -0.00    -0.02  -0.08  -0.00    -0.01   0.01   0.00
  29   1    -0.01  -0.02   0.00     0.00  -0.05  -0.00    -0.06  -0.05   0.00
  30   1    -0.01  -0.02   0.00     0.00  -0.05  -0.00    -0.05  -0.04   0.01
  31   1    -0.05   0.05   0.01     0.02  -0.07  -0.01    -0.01  -0.10  -0.01
  32   1    -0.04   0.04   0.01     0.02  -0.07  -0.01    -0.01  -0.10  -0.01
  33   1    -0.01   0.09   0.00     0.01  -0.08  -0.00     0.07   0.02  -0.00
  34   1    -0.01   0.09   0.00     0.01  -0.08  -0.01     0.07   0.02  -0.01
  35   1     0.05  -0.01  -0.01    -0.04   0.02   0.00     0.02   0.12   0.01
  36   1     0.05  -0.00  -0.01    -0.03   0.01  -0.00     0.00   0.13   0.01
  37   1     0.04  -0.02  -0.01     0.01   0.08   0.02    -0.06   0.06  -0.01
  38   1     0.03  -0.03  -0.01    -0.01   0.07   0.02    -0.03   0.07  -0.01
  39   1    -0.02   0.00  -0.04     0.00   0.05  -0.02     0.10   0.05   0.04
  40   1     0.01   0.04  -0.03     0.00   0.07   0.01     0.04  -0.07  -0.03
  41   1    -0.07  -0.03  -0.08     0.02   0.04   0.01     0.01  -0.02  -0.01
  42   1    -0.03   0.09  -0.01     0.05   0.09   0.00    -0.01  -0.06  -0.01
  43   1     0.04  -0.05   0.12     0.10   0.05   0.04    -0.07  -0.05   0.02
  44   1     0.04   0.01   0.10     0.10   0.03   0.05    -0.06   0.02  -0.01
  45   1     0.07  -0.01   0.09     0.06   0.02   0.05    -0.04  -0.04  -0.01
  46   1     0.06  -0.03   0.08     0.07   0.01   0.05    -0.05  -0.03  -0.02
  47   1    -0.11  -0.04  -0.08    -0.05   0.00  -0.05    -0.01  -0.03   0.01
  48   1    -0.11  -0.03  -0.08    -0.05   0.00  -0.04    -0.01  -0.03   0.01
  49   1    -0.08   0.02  -0.08    -0.09  -0.04  -0.05     0.03   0.04   0.01
  50   1    -0.07   0.02  -0.08    -0.09  -0.04  -0.05     0.04   0.04   0.01
  51   1     0.10   0.03   0.07    -0.04  -0.05  -0.01     0.05   0.04   0.02
  52   1    -0.01  -0.14   0.08    -0.06  -0.07  -0.00     0.03   0.00   0.03
  53   1     0.10   0.03   0.07    -0.04  -0.05  -0.01     0.06   0.04   0.02
                     28                     29                     30
                        a                      a                      a 
 Frequencies --   442.2323               488.1185               768.5647
 Red. masses --    99.0000                99.0000                99.0000
 Frc consts  --    99.0000                99.0000                99.0000
 IR Inten    --    99.0000                99.0000                99.0000
 Raman Activ --     0.0000                 0.0000                 0.0000
 Depolar     --     0.0000                 0.0000                 0.0000
 Atom AN      X      Y      Z        X      Y      Z        X      Y      Z
   1   6     0.04   0.00  -0.01     0.03  -0.11  -0.01    -0.00   0.00  -0.00
   2   6    -0.16  -0.12   0.02    -0.06  -0.12   0.00    -0.01   0.00  -0.05
   3   6    -0.02  -0.16  -0.01    -0.08  -0.02   0.01    -0.02   0.01  -0.08
   4   6     0.23   0.04  -0.03     0.17   0.19  -0.02    -0.02   0.00  -0.11
   5   6    -0.04   0.26   0.02     0.00   0.31   0.02    -0.02   0.01  -0.12
   6   6    -0.19   0.18   0.04    -0.19   0.14   0.03    -0.01   0.00  -0.10
   7   6     0.07  -0.03  -0.01     0.15  -0.19  -0.03    -0.01   0.01  -0.06
   8   6     0.15  -0.04  -0.02     0.04  -0.31  -0.02     0.00   0.00  -0.03
   9   6    -0.03   0.03   0.03    -0.18  -0.14   0.01    -0.00   0.00  -0.00
  10   6    -0.22  -0.11   0.07     0.03   0.04   0.01    -0.01  -0.01   0.01
  11   6    -0.06  -0.20  -0.09     0.05   0.11   0.05     0.00  -0.01   0.01
  12   6     0.01   0.01  -0.04     0.13   0.18   0.08     0.02   0.00   0.00
  13   6     0.15  -0.02   0.10     0.03   0.20  -0.12     0.02   0.01  -0.02
  14   6     0.19   0.24   0.02    -0.10  -0.20   0.00     0.01  -0.01  -0.02
  15   6     0.11   0.24  -0.05    -0.12  -0.21   0.01     0.01  -0.02  -0.01
  16   6    -0.04  -0.18   0.07    -0.04   0.10  -0.10     0.01  -0.01  -0.01
  17   6    -0.21  -0.16  -0.09     0.10   0.07   0.05     0.00  -0.00  -0.00
  18   1     0.02   0.04   0.00     0.01  -0.02  -0.00     0.04  -0.03   0.02
  19   1     0.02   0.04  -0.00     0.01  -0.02  -0.00    -0.03   0.03   0.03
  20   1     0.07  -0.04  -0.02     0.02  -0.04  -0.01     0.00  -0.00   0.01
  21   1    -0.04  -0.04   0.01    -0.02  -0.05   0.00     0.14   0.02   0.06
  22   1    -0.04  -0.04   0.00    -0.02  -0.05   0.00    -0.11  -0.03   0.10
  23   1    -0.01  -0.09  -0.00    -0.02  -0.03   0.00     0.24  -0.04   0.10
  24   1    -0.00  -0.09  -0.01    -0.02  -0.03  -0.00    -0.19   0.02   0.18
  25   1     0.06   0.01  -0.01     0.04   0.07  -0.01     0.30  -0.01   0.13
  26   1     0.06   0.01  -0.01     0.05   0.07  -0.00    -0.25  -0.02   0.22
  27   1    -0.01   0.13   0.01     0.00   0.14   0.01    -0.26  -0.00   0.22
  28   1    -0.01   0.13   0.01     0.00   0.14   0.01     0.31  -0.01   0.14
  29   1    -0.05   0.07   0.01    -0.05   0.06   0.01    -0.22   0.02   0.19
  30   1    -0.05   0.07   0.01    -0.05   0.06   0.01     0.26  -0.04   0.12
  31   1     0.02  -0.04  -0.01     0.04  -0.09  -0.01    -0.16  -0.03   0.13
  32   1     0.02  -0.04  -0.01     0.04  -0.09  -0.01     0.18   0.02   0.09
  33   1     0.04  -0.02  -0.01     0.01  -0.14  -0.00    -0.07   0.03   0.07
  34   1     0.03  -0.03  -0.01     0.01  -0.14  -0.01     0.09  -0.03   0.04
  35   1    -0.01   0.05   0.01    -0.05  -0.04   0.00     0.02   0.02   0.01
  36   1    -0.01   0.04   0.01    -0.04  -0.05  -0.00    -0.02  -0.01   0.02
  37   1    -0.01  -0.02   0.06     0.00   0.04   0.00    -0.01  -0.00  -0.00
  38   1    -0.11  -0.05   0.05     0.01   0.04   0.00     0.01  -0.00  -0.00
  39   1     0.03  -0.04   0.03    -0.02   0.01  -0.00    -0.01  -0.00  -0.02
  40   1     0.00  -0.11  -0.05    -0.01   0.05   0.04    -0.01   0.01   0.02
  41   1    -0.02  -0.01  -0.07     0.09   0.08   0.09    -0.00  -0.00  -0.02
  42   1     0.00   0.09  -0.01     0.06  -0.04   0.00    -0.01   0.01   0.01
  43   1     0.04   0.00   0.01     0.04   0.09  -0.06     0.00  -0.01   0.04
  44   1     0.04  -0.02   0.02     0.04   0.02  -0.03    -0.03   0.04  -0.01
  45   1     0.07   0.09   0.02    -0.06  -0.08  -0.02    -0.04   0.06  -0.01
  46   1     0.09   0.09   0.03    -0.06  -0.08  -0.02    -0.01  -0.03   0.06
  47   1     0.06   0.08   0.00    -0.07  -0.07  -0.01    -0.03   0.06  -0.01
  48   1     0.06   0.09   0.00    -0.07  -0.08  -0.01    -0.02  -0.03   0.06
  49   1    -0.03  -0.06   0.01    -0.00   0.03  -0.02    -0.00  -0.01   0.04
  50   1    -0.03  -0.06   0.01     0.00   0.03  -0.02    -0.03   0.03  -0.01
  51   1    -0.10  -0.07  -0.05     0.07   0.04   0.04    -0.01  -0.01   0.01
  52   1    -0.03   0.04  -0.06     0.01  -0.06   0.04    -0.00  -0.00   0.00
  53   1    -0.11  -0.07  -0.05     0.07   0.04   0.03     0.00   0.02   0.00
                     31                     32                     33
                        a                      a                      a 
 Frequencies --   496.1806               769.9442               766.9255
 Red. masses --    99.0000                99.0000                99.0000
 Frc consts  --    99.0000                99.0000                99.0000
 IR Inten    --    99.0000                99.0000                99.0000
 Raman Activ --     0.0000                 0.0000                 0.0000
 Depolar     --     0.0000                 0.0000                 0.0000
 Atom AN      X      Y      Z        X      Y      Z        X      Y      Z
   1   6    -0.02   0.21   0.01    -0.00   0.00  -0.00    -0.00   0.00  -0.00
   2   6    -0.16   0.04   0.03    -0.01   0.00  -0.05    -0.00   0.00  -0.01
   3   6     0.21  -0.25  -0.05    -0.01   0.01  -0.08    -0.00   0.00  -0.02
   4   6     0.06  -0.33  -0.03    -0.01   0.00  -0.07    -0.00  -0.00  -0.01
   5   6    -0.29  -0.02   0.04    -0.00   0.00  -0.02     0.00  -0.01  -0.00
   6   6     0.13   0.30  -0.00     0.01  -0.00   0.04     0.00  -0.00   0.02
   7   6     0.20   0.28  -0.01     0.01  -0.01   0.08    -0.01   0.01   0.06
   8   6    -0.21  -0.00   0.02     0.01  -0.00   0.09     0.03   0.02   0.08
   9   6    -0.06  -0.17  -0.01     0.01  -0.01   0.07    -0.01   0.01   0.11
  10   6     0.14  -0.11  -0.01     0.01   0.01   0.03    -0.07  -0.07   0.09
  11   6    -0.01   0.00   0.01     0.00  -0.00  -0.03     0.02  -0.08   0.07
  12   6     0.01   0.05   0.04    -0.02  -0.01  -0.02     0.10  -0.00  -0.01
  13   6     0.01   0.05  -0.03    -0.04   0.00   0.04     0.09   0.05  -0.08
  14   6    -0.02  -0.04  -0.00    -0.06   0.04   0.07     0.05  -0.04  -0.09
  15   6    -0.03  -0.05   0.00    -0.06   0.05   0.06     0.04  -0.07  -0.04
  16   6    -0.01   0.02  -0.02    -0.04   0.03   0.05     0.02  -0.01  -0.04
  17   6     0.02   0.02   0.01    -0.00   0.00   0.00     0.00   0.00  -0.00
  18   1     0.00   0.12   0.01     0.04  -0.04   0.02     0.01  -0.01   0.00
  19   1     0.00   0.12   0.00    -0.03   0.04   0.04    -0.01   0.01   0.01
  20   1     0.08   0.00  -0.01     0.00  -0.00   0.02     0.00   0.00   0.00
  21   1    -0.04   0.04   0.01     0.14   0.02   0.06     0.03   0.00   0.01
  22   1    -0.04   0.04   0.01    -0.11  -0.03   0.10    -0.02  -0.01   0.02
  23   1     0.05  -0.11  -0.02     0.19  -0.01   0.08     0.04  -0.00   0.02
  24   1     0.05  -0.11  -0.01    -0.15   0.00   0.14    -0.03   0.00   0.03
  25   1     0.02  -0.16  -0.01     0.16  -0.03   0.07     0.03  -0.01   0.01
  26   1     0.01  -0.16  -0.01    -0.13   0.02   0.11    -0.03   0.01   0.02
  27   1    -0.07  -0.01   0.01    -0.04  -0.04   0.03     0.01  -0.02  -0.01
  28   1    -0.07  -0.01   0.01     0.05   0.04   0.02    -0.01   0.01  -0.00
  29   1     0.04   0.15   0.00     0.08   0.04  -0.06     0.06   0.02  -0.05
  30   1     0.03   0.15   0.00    -0.09  -0.03  -0.04    -0.08  -0.02  -0.04
  31   1     0.05   0.13   0.00     0.16  -0.02  -0.13     0.13  -0.02  -0.11
  32   1     0.06   0.13  -0.00    -0.19   0.03  -0.09    -0.16   0.04  -0.07
  33   1    -0.06  -0.02   0.00     0.19  -0.00  -0.15     0.20   0.03  -0.16
  34   1    -0.05  -0.02   0.01    -0.22   0.02  -0.11    -0.22   0.01  -0.11
  35   1    -0.02  -0.09  -0.01    -0.17  -0.01  -0.09    -0.25   0.04  -0.12
  36   1    -0.01  -0.10  -0.01     0.15   0.02  -0.12     0.22   0.02  -0.17
  37   1     0.03  -0.03  -0.01    -0.07   0.04  -0.04    -0.18   0.04  -0.09
  38   1     0.04  -0.03  -0.01     0.07  -0.03  -0.05     0.14  -0.04  -0.10
  39   1    -0.06  -0.03  -0.03     0.01   0.00   0.01    -0.05  -0.02  -0.12
  40   1    -0.02   0.05   0.02     0.02  -0.00  -0.02    -0.07   0.08   0.10
  41   1     0.01   0.02   0.02     0.01   0.01   0.02    -0.03  -0.01  -0.14
  42   1     0.01  -0.00   0.01     0.02  -0.02  -0.03    -0.06   0.09   0.07
  43   1     0.01   0.03  -0.02    -0.01   0.04  -0.14     0.01  -0.05   0.17
  44   1     0.01  -0.01  -0.01     0.11  -0.10   0.04    -0.12   0.16  -0.05
  45   1    -0.01  -0.02  -0.00     0.12  -0.22   0.04    -0.16   0.22  -0.06
  46   1    -0.01  -0.02  -0.01     0.05   0.11  -0.22    -0.05  -0.12   0.23
  47   1    -0.01  -0.01  -0.00     0.13  -0.23   0.05    -0.11   0.20  -0.03
  48   1    -0.02  -0.02  -0.00     0.05   0.12  -0.24    -0.06  -0.11   0.20
  49   1    -0.00   0.01  -0.00     0.01   0.06  -0.18    -0.00  -0.04   0.13
  50   1     0.00   0.01  -0.00     0.12  -0.14   0.05    -0.09   0.11  -0.04
  51   1     0.01   0.01   0.01     0.04   0.04  -0.04    -0.02  -0.02   0.03
  52   1     0.00  -0.01   0.01     0.01  -0.01  -0.01    -0.01  -0.01   0.01
  53   1     0.01   0.01   0.01    -0.01  -0.07  -0.01     0.01   0.05   0.01
                     34                     35                     36
                        a                      a                      a 
 Frequencies --   557.5975               828.8395               794.6728
 Red. masses --    99.0000                99.0000                99.0000
 Frc consts  --    99.0000                99.0000                99.0000
 IR Inten    --    99.0000                99.0000                99.0000
 Raman Activ --     0.0000                 0.0000                 0.0000
 Depolar     --     0.0000                 0.0000                 0.0000
 Atom AN      X      Y      Z        X      Y      Z        X      Y      Z
   1   6    -0.01   0.02   0.00     0.01  -0.00   0.06    -0.01   0.00  -0.02
   2   6     0.02   0.02  -0.00     0.02  -0.01   0.14    -0.02   0.01  -0.12
   3   6     0.01   0.01  -0.00    -0.01   0.00  -0.08    -0.01   0.00  -0.04
   4   6    -0.05  -0.04   0.01    -0.02   0.01  -0.15     0.02  -0.01   0.10
   5   6     0.03  -0.09  -0.01     0.01  -0.00   0.07     0.02  -0.01   0.10
   6   6     0.05  -0.05  -0.01     0.02  -0.01   0.16    -0.01   0.00  -0.03
   7   6    -0.11   0.11   0.02    -0.02   0.01  -0.06    -0.02   0.01  -0.12
   8   6     0.06   0.20   0.01    -0.01   0.01  -0.16     0.01   0.01  -0.05
   9   6     0.11   0.09   0.03     0.02  -0.02   0.05    -0.01   0.01   0.10
  10   6    -0.28  -0.24   0.06    -0.03  -0.05   0.17    -0.00  -0.02   0.11
  11   6    -0.10  -0.33  -0.07    -0.03   0.01   0.04     0.03  -0.05  -0.03
  12   6     0.19   0.23   0.11    -0.05  -0.01  -0.13    -0.01  -0.01  -0.05
  13   6     0.14   0.31  -0.12     0.01   0.04  -0.02    -0.07   0.03   0.07
  14   6    -0.02  -0.11  -0.01     0.04  -0.01   0.04    -0.05   0.04   0.08
  15   6    -0.08  -0.14   0.00     0.01   0.02  -0.00     0.02  -0.00  -0.03
  16   6    -0.06   0.05  -0.08    -0.01   0.01  -0.00     0.07  -0.05  -0.08
  17   6     0.02   0.02   0.01    -0.01  -0.01   0.00     0.01  -0.01  -0.02
  18   1    -0.00   0.00   0.00    -0.12   0.15  -0.05     0.09  -0.10   0.04
  19   1    -0.00   0.00   0.00     0.09  -0.14  -0.10    -0.07   0.09   0.08
  20   1    -0.01   0.01   0.00    -0.01   0.00  -0.08     0.01  -0.00   0.05
  21   1     0.01   0.01  -0.00    -0.20   0.08  -0.06     0.21  -0.02   0.08
  22   1     0.01   0.01  -0.00     0.16  -0.07  -0.14    -0.17   0.00   0.15
  23   1     0.00   0.01   0.00     0.10  -0.12   0.03     0.07   0.08   0.03
  24   1     0.00   0.01   0.00    -0.09   0.11   0.07    -0.05  -0.08   0.04
  25   1    -0.01  -0.01   0.00     0.20  -0.07   0.07    -0.16  -0.04  -0.06
  26   1    -0.01  -0.01   0.00    -0.17   0.06   0.13     0.14   0.05  -0.11
  27   1     0.01  -0.04  -0.00     0.07  -0.12  -0.06     0.14   0.05  -0.11
  28   1     0.01  -0.04  -0.00    -0.09   0.12  -0.03    -0.17  -0.04  -0.07
  29   1     0.01  -0.03  -0.00     0.18  -0.05  -0.13    -0.05  -0.08   0.03
  30   1     0.01  -0.03  -0.00    -0.20   0.06  -0.07     0.06   0.08   0.03
  31   1    -0.03   0.04   0.00    -0.06   0.12   0.05    -0.17   0.00   0.13
  32   1    -0.03   0.04   0.01     0.07  -0.12   0.02     0.20  -0.02   0.08
  33   1     0.02   0.10   0.00    -0.18   0.05   0.13    -0.06   0.08   0.05
  34   1     0.01   0.09   0.00     0.21  -0.05   0.08     0.07  -0.08   0.03
  35   1     0.04   0.08   0.01    -0.05   0.13  -0.02    -0.15   0.08  -0.06
  36   1     0.02   0.06   0.02     0.05  -0.13  -0.04     0.13  -0.05  -0.10
  37   1     0.02  -0.07   0.09    -0.22   0.02  -0.10    -0.17   0.06  -0.08
  38   1    -0.17  -0.13   0.09     0.19  -0.04  -0.12     0.16  -0.03  -0.10
  39   1     0.03  -0.08   0.10     0.01   0.00   0.05    -0.01  -0.01  -0.06
  40   1    -0.03  -0.23  -0.04     0.07   0.02  -0.05     0.01   0.05  -0.00
  41   1     0.15   0.14   0.09     0.05   0.03   0.07     0.04   0.03  -0.02
  42   1     0.12  -0.03  -0.03     0.06  -0.08  -0.09     0.01  -0.01  -0.03
  43   1     0.10   0.16  -0.11     0.02   0.02   0.00    -0.01   0.07  -0.18
  44   1     0.10  -0.02  -0.03     0.03   0.03   0.01     0.13  -0.13   0.05
  45   1    -0.04  -0.07  -0.02     0.02   0.01   0.01     0.14  -0.12   0.06
  46   1    -0.03  -0.05  -0.03     0.01  -0.00   0.02    -0.01   0.05  -0.17
  47   1    -0.05  -0.05  -0.01     0.00   0.01  -0.00    -0.09   0.01  -0.04
  48   1    -0.05  -0.06  -0.01    -0.00  -0.00   0.00     0.05   0.02   0.08
  49   1    -0.01   0.02  -0.02    -0.00   0.00  -0.01    -0.03  -0.10   0.19
  50   1    -0.01   0.02  -0.02    -0.00  -0.01  -0.00    -0.10   0.19  -0.05
  51   1     0.03   0.02   0.02     0.00   0.00  -0.00    -0.09  -0.09   0.05
  52   1    -0.01  -0.05   0.02     0.00  -0.00  -0.00    -0.03   0.02   0.03
  53   1     0.03   0.02   0.02    -0.00  -0.01  -0.00     0.02   0.13   0.02
                     37                     38                     39
                        a                      a                      a 
 Frequencies --   774.8588               871.8387               785.1069
 Red. masses --    99.0000                99.0000                99.0000
 Frc consts  --    99.0000                99.0000                99.0000
 IR Inten    --    99.0000                99.0000                99.0000
 Raman Activ --     0.0000                 0.0000                 0.0000
 Depolar     --     0.0000                 0.0000                 0.0000
 Atom AN      X      Y      Z        X      Y      Z        X      Y      Z
   1   6    -0.00   0.00  -0.01     0.01  -0.01   0.08    -0.00   0.00  -0.01
   2   6    -0.02   0.00  -0.10     0.01  -0.01   0.09    -0.01   0.01  -0.08
   3   6    -0.02   0.01  -0.11    -0.03   0.01  -0.17    -0.01   0.00  -0.05
   4   6    -0.00   0.00  -0.03    -0.00   0.00  -0.02     0.01  -0.00   0.04
   5   6     0.01  -0.00   0.07     0.02  -0.00   0.18     0.02  -0.01   0.08
   6   6     0.02  -0.00   0.11    -0.01   0.00  -0.07    -0.00  -0.01   0.03
   7   6     0.01  -0.01   0.07    -0.01  -0.01  -0.15    -0.02   0.01  -0.05
   8   6    -0.02  -0.02  -0.03    -0.01  -0.02   0.14     0.02   0.03  -0.09
   9   6     0.01  -0.01  -0.11     0.02  -0.01   0.08    -0.03   0.03  -0.02
  10   6     0.04   0.04  -0.10     0.04   0.07  -0.19    -0.06  -0.06   0.05
  11   6    -0.03   0.07  -0.03    -0.00   0.03  -0.09     0.05  -0.10   0.09
  12   6    -0.06   0.01   0.03     0.06   0.03   0.16     0.16  -0.02   0.03
  13   6    -0.03  -0.04   0.02     0.00  -0.07   0.02     0.11   0.04  -0.10
  14   6     0.03  -0.02  -0.01    -0.05   0.02  -0.06    -0.00  -0.01  -0.08
  15   6     0.04  -0.01  -0.05    -0.02  -0.01   0.01    -0.06  -0.01   0.07
  16   6     0.04  -0.03  -0.03     0.01  -0.01   0.00    -0.09   0.06   0.07
  17   6     0.00  -0.00  -0.00     0.01   0.01  -0.00    -0.01   0.01   0.01
  18   1     0.07  -0.08   0.03    -0.13   0.17  -0.04     0.06  -0.06   0.02
  19   1    -0.06   0.07   0.07     0.10  -0.16  -0.10    -0.04   0.06   0.05
  20   1     0.01  -0.00   0.03    -0.01   0.00  -0.09     0.00  -0.00   0.03
  21   1     0.24   0.02   0.09    -0.11   0.14  -0.03     0.16  -0.00   0.06
  22   1    -0.19  -0.03   0.17     0.09  -0.13  -0.08    -0.13  -0.01   0.11
  23   1     0.24   0.01   0.10     0.19  -0.06   0.05     0.09   0.04   0.04
  24   1    -0.19  -0.03   0.17    -0.16   0.05   0.12    -0.08  -0.04   0.06
  25   1     0.07  -0.07   0.03     0.01  -0.15  -0.00    -0.07  -0.04  -0.03
  26   1    -0.06   0.07   0.05    -0.01   0.15   0.02     0.06   0.05  -0.04
  27   1     0.12  -0.05  -0.10     0.17   0.02  -0.12     0.13  -0.00  -0.10
  28   1    -0.14   0.06  -0.06    -0.20  -0.01  -0.06    -0.15   0.00  -0.06
  29   1     0.20   0.00  -0.16    -0.07  -0.14   0.04     0.05  -0.05  -0.04
  30   1    -0.24   0.02  -0.10     0.08   0.14   0.03    -0.06   0.05  -0.02
  31   1     0.13   0.05  -0.10    -0.14  -0.09   0.09    -0.09   0.04   0.07
  32   1    -0.15  -0.04  -0.07     0.17   0.08   0.06     0.10  -0.05   0.04
  33   1    -0.06  -0.07   0.03     0.13   0.09  -0.08    -0.13   0.02   0.11
  34   1     0.05   0.05   0.03    -0.16  -0.10  -0.06     0.17  -0.01   0.07
  35   1     0.21  -0.06   0.09    -0.09  -0.15  -0.04     0.06   0.07   0.04
  36   1    -0.18   0.01   0.14     0.09   0.13  -0.05    -0.07  -0.01   0.05
  37   1     0.17  -0.05   0.08     0.20   0.04   0.09    -0.05  -0.02  -0.01
  38   1    -0.15   0.04   0.10    -0.17  -0.03   0.09     0.02   0.02  -0.01
  39   1     0.03   0.01   0.10     0.03   0.02   0.02    -0.08  -0.03  -0.20
  40   1     0.04  -0.07  -0.06    -0.05  -0.10   0.00    -0.13   0.12   0.17
  41   1     0.01  -0.00   0.10    -0.06  -0.04  -0.02    -0.06  -0.03  -0.24
  42   1     0.04  -0.06  -0.04    -0.03   0.09   0.08    -0.12   0.16   0.14
  43   1     0.01  -0.00   0.02    -0.02  -0.04   0.02    -0.01  -0.07   0.14
  44   1    -0.03  -0.01  -0.00    -0.05  -0.03  -0.01    -0.10   0.15  -0.05
  45   1    -0.02   0.09  -0.00    -0.04  -0.01  -0.03    -0.12   0.02  -0.07
  46   1    -0.02  -0.05   0.08    -0.01   0.01  -0.01     0.01  -0.01   0.08
  47   1    -0.08   0.13  -0.03     0.00  -0.02   0.00     0.13  -0.12   0.06
  48   1    -0.01  -0.05   0.14     0.01   0.01  -0.01    -0.03   0.02  -0.17
  49   1    -0.01  -0.05   0.13    -0.01  -0.01   0.01     0.03   0.11  -0.25
  50   1    -0.08   0.11  -0.03     0.01   0.02   0.00     0.14  -0.22   0.06
  51   1    -0.04  -0.04   0.03    -0.01  -0.01   0.01     0.10   0.09  -0.06
  52   1    -0.01   0.01   0.01    -0.00   0.01   0.01     0.03  -0.03  -0.03
  53   1     0.00   0.06   0.01     0.01   0.02   0.00    -0.01  -0.13  -0.02
                     40                     41                     42
                        a                      a                      a 
 Frequencies --   862.0873              1504.8979               803.7183
 Red. masses --    99.0000                99.0000                99.0000
 Frc consts  --    99.0000                99.0000                99.0000
 IR Inten    --    99.0000                99.0000                99.0000
 Raman Activ --     0.0000                 0.0000                 0.0000
 Depolar     --     0.0000                 0.0000                 0.0000
 Atom AN      X      Y      Z        X      Y      Z        X      Y      Z
   1   6    -0.00  -0.00  -0.00    -0.00   0.00  -0.00    -0.00   0.00  -0.02
   2   6    -0.00  -0.00  -0.01     0.00   0.00  -0.00    -0.01   0.00  -0.07
   3   6     0.00  -0.00   0.01    -0.00  -0.00   0.00     0.00  -0.00  -0.00
   4   6    -0.00  -0.00   0.00     0.00   0.00  -0.00     0.01  -0.00   0.07
   5   6    -0.01   0.01  -0.01    -0.00   0.00   0.00    -0.00   0.01   0.04
   6   6     0.01   0.01  -0.00     0.00  -0.00  -0.00     0.00   0.01  -0.05
   7   6    -0.01   0.01   0.01    -0.00   0.00   0.00    -0.01   0.00  -0.06
   8   6    -0.02  -0.02  -0.00     0.00   0.00  -0.00    -0.03  -0.03   0.03
   9   6     0.07  -0.06  -0.02    -0.00  -0.00   0.00     0.07  -0.07   0.07
  10   6    -0.09  -0.04   0.02    -0.00   0.00   0.00    -0.00   0.01   0.03
  11   6    -0.10   0.14   0.14     0.00   0.00   0.00    -0.13   0.16  -0.00
  12   6     0.07  -0.02  -0.09     0.00  -0.00  -0.00    -0.15   0.04  -0.11
  13   6     0.20   0.00  -0.19     0.00   0.00  -0.00     0.04  -0.03  -0.06
  14   6    -0.04   0.04   0.05    -0.00   0.00   0.00     0.13  -0.07  -0.02
  15   6    -0.13   0.06   0.16    -0.00   0.00   0.00     0.01   0.04  -0.01
  16   6     0.07  -0.05  -0.12     0.03  -0.02  -0.03    -0.07   0.05   0.07
  17   6     0.05  -0.05  -0.08     0.13  -0.09  -0.14    -0.02   0.00   0.02
  18   1     0.01  -0.01   0.00     0.00   0.00   0.00     0.05  -0.06   0.02
  19   1    -0.01   0.01   0.01    -0.00  -0.01   0.00    -0.04   0.06   0.04
  20   1     0.00  -0.00   0.00     0.00  -0.00   0.01     0.01  -0.00   0.03
  21   1     0.01  -0.01   0.00    -0.00  -0.00  -0.00     0.11  -0.02   0.04
  22   1    -0.01   0.01   0.01    -0.00   0.00   0.00    -0.09   0.01   0.08
  23   1    -0.01   0.00  -0.00     0.00  -0.00   0.00     0.01   0.05   0.00
  24   1     0.01  -0.00  -0.01     0.00   0.00  -0.00    -0.01  -0.05   0.00
  25   1    -0.00   0.01  -0.00    -0.00   0.00  -0.00    -0.11  -0.01  -0.04
  26   1     0.00  -0.01  -0.00    -0.00  -0.00   0.00     0.09   0.01  -0.07
  27   1    -0.01   0.00   0.01     0.00   0.00  -0.00     0.05   0.05  -0.03
  28   1     0.01  -0.00   0.00     0.00  -0.00   0.00    -0.06  -0.04  -0.02
  29   1     0.00   0.01   0.00    -0.00  -0.00   0.00    -0.07  -0.03   0.05
  30   1     0.00  -0.00  -0.00    -0.00   0.00  -0.00     0.08   0.04   0.03
  31   1     0.01   0.01  -0.01     0.00   0.00  -0.00    -0.08  -0.02   0.06
  32   1    -0.01   0.01  -0.00     0.00  -0.00   0.00     0.09   0.03   0.04
  33   1    -0.01  -0.01   0.00    -0.00  -0.00   0.00     0.03   0.05  -0.02
  34   1     0.00   0.01   0.00    -0.00   0.00  -0.00    -0.05  -0.06  -0.02
  35   1     0.03  -0.03   0.00     0.00  -0.00   0.00    -0.11  -0.03  -0.06
  36   1     0.00  -0.03   0.01     0.00   0.00  -0.00     0.13  -0.04  -0.08
  37   1    -0.03  -0.08  -0.00     0.00   0.00   0.00    -0.07  -0.00  -0.04
  38   1    -0.02  -0.03   0.00     0.00  -0.00  -0.00     0.05  -0.07  -0.05
  39   1     0.04   0.06   0.14    -0.00  -0.00  -0.00     0.09   0.05   0.32
  40   1     0.00  -0.09  -0.01     0.00  -0.00  -0.00     0.16  -0.16  -0.20
  41   1    -0.07  -0.10   0.02     0.00   0.00   0.00     0.04   0.00   0.30
  42   1     0.01   0.02  -0.01    -0.00   0.00   0.00     0.15  -0.20  -0.19
  43   1    -0.03  -0.15   0.22    -0.00  -0.00   0.00     0.05  -0.03   0.16
  44   1    -0.10   0.29  -0.05     0.00  -0.00  -0.00    -0.09   0.12  -0.03
  45   1    -0.12  -0.18  -0.05     0.00  -0.01   0.00    -0.09   0.16  -0.03
  46   1     0.15   0.14  -0.02     0.00   0.00   0.00     0.03  -0.07   0.21
  47   1     0.04  -0.28   0.04     0.02   0.01   0.01     0.07   0.05   0.03
  48   1     0.09   0.16  -0.19    -0.01  -0.01  -0.01    -0.06  -0.03  -0.04
  49   1    -0.14  -0.16   0.10    -0.01  -0.02   0.01     0.03   0.09  -0.16
  50   1     0.03   0.24   0.00     0.01   0.02  -0.01     0.07  -0.17   0.03
  51   1    -0.18  -0.18   0.10     0.31   0.16   0.31     0.08   0.08  -0.05
  52   1    -0.08   0.02   0.08    -0.44   0.30   0.48     0.03  -0.01  -0.04
  53   1     0.08   0.28   0.04    -0.41  -0.09  -0.20    -0.03  -0.13  -0.02
                     43                     44                     45
                        a                      a                      a 
 Frequencies --  1504.8785               916.4141              1508.0799
 Red. masses --    99.0000                99.0000                99.0000
 Frc consts  --    99.0000                99.0000                99.0000
 IR Inten    --    99.0000                99.0000                99.0000
 Raman Activ --     0.0000                 0.0000                 0.0000
 Depolar     --     0.0000                 0.0000                 0.0000
 Atom AN      X      Y      Z        X      Y      Z        X      Y      Z
   1   6    -0.04   0.01  -0.21     0.02   0.00   0.09    -0.17  -0.10   0.03
   2   6    -0.00   0.00  -0.05     0.01  -0.00   0.02    -0.10  -0.04   0.02
   3   6     0.00   0.00   0.00    -0.03   0.00  -0.16    -0.05   0.02   0.01
   4   6     0.01   0.00   0.00     0.02  -0.01   0.13     0.01  -0.01  -0.00
   5   6    -0.00  -0.00   0.00     0.02  -0.01   0.04    -0.02   0.00   0.00
   6   6     0.01  -0.00  -0.00    -0.03   0.01  -0.16     0.02  -0.00  -0.00
   7   6    -0.01   0.00   0.00     0.00   0.01   0.12    -0.01   0.00   0.00
   8   6     0.01  -0.00  -0.00     0.04   0.02   0.05     0.01  -0.00  -0.00
   9   6    -0.01   0.00   0.00    -0.06   0.02  -0.16    -0.01   0.00   0.00
  10   6     0.00  -0.00  -0.00    -0.03  -0.08   0.11     0.00  -0.00  -0.00
  11   6    -0.00  -0.00  -0.00     0.03  -0.06   0.18    -0.00  -0.00   0.00
  12   6     0.00  -0.00  -0.00    -0.10  -0.08  -0.21     0.00  -0.00  -0.00
  13   6    -0.00   0.00  -0.00    -0.01   0.13  -0.08    -0.00   0.00  -0.00
  14   6     0.00   0.00   0.00     0.09  -0.03   0.12     0.00   0.00  -0.00
  15   6    -0.00   0.00  -0.00     0.04   0.03   0.01    -0.00  -0.00   0.00
  16   6    -0.00   0.00   0.00    -0.01   0.03  -0.03     0.00  -0.00   0.00
  17   6    -0.00   0.00   0.00    -0.03  -0.03  -0.01     0.00  -0.00   0.00
  18   1     0.17   0.43   0.07    -0.12   0.16  -0.03     0.54   0.10   0.26
  19   1    -0.14  -0.44   0.08     0.09  -0.15  -0.09     0.41   0.14  -0.43
  20   1     0.13  -0.04   0.70    -0.02   0.01  -0.08    -0.25   0.18   0.05
  21   1     0.01  -0.02  -0.01    -0.02   0.17   0.00     0.12   0.02   0.07
  22   1    -0.02   0.02   0.01     0.01  -0.17  -0.02     0.09   0.03  -0.10
  23   1    -0.00  -0.02  -0.00     0.16   0.05   0.04     0.13  -0.02   0.06
  24   1    -0.00   0.02   0.00    -0.14  -0.06   0.09     0.10  -0.01  -0.11
  25   1    -0.02   0.00  -0.01    -0.13  -0.10  -0.04    -0.04   0.01  -0.02
  26   1    -0.01  -0.00   0.01     0.11   0.11  -0.07    -0.03   0.00   0.03
  27   1     0.01  -0.00  -0.01     0.04   0.16  -0.01     0.04   0.00  -0.04
  28   1     0.01  -0.00   0.01    -0.04  -0.16  -0.02     0.06  -0.00   0.03
  29   1    -0.02  -0.00   0.02    -0.14   0.04   0.09    -0.03   0.00   0.03
  30   1    -0.02   0.00  -0.01     0.15  -0.05   0.05    -0.04   0.00  -0.02
  31   1     0.01   0.00  -0.01     0.09  -0.12  -0.07     0.03   0.00  -0.02
  32   1     0.02  -0.00   0.01    -0.11   0.13  -0.03     0.03  -0.00   0.02
  33   1    -0.02   0.00   0.01     0.05  -0.15  -0.04    -0.02   0.00   0.02
  34   1    -0.02   0.00  -0.01    -0.04   0.16  -0.01    -0.02   0.00  -0.01
  35   1     0.01  -0.00   0.01     0.15   0.05   0.06     0.02  -0.00   0.01
  36   1     0.01   0.00  -0.01    -0.16  -0.00   0.09     0.01   0.00  -0.01
  37   1    -0.01   0.00  -0.00    -0.11  -0.13  -0.05    -0.01   0.00  -0.01
  38   1    -0.01   0.00   0.01     0.08   0.13  -0.03    -0.01   0.00   0.01
  39   1     0.00   0.00  -0.00    -0.08  -0.05  -0.06     0.00   0.00  -0.00
  40   1     0.00   0.00  -0.00     0.03   0.15   0.05     0.00   0.00  -0.00
  41   1     0.00   0.00   0.01     0.07   0.05   0.02     0.00   0.00   0.01
  42   1    -0.00   0.00   0.00    -0.01  -0.17  -0.07    -0.00   0.01   0.00
  43   1    -0.00  -0.00   0.00     0.03   0.06  -0.01    -0.00  -0.00   0.00
  44   1     0.00  -0.00   0.00     0.06   0.07   0.01     0.00  -0.00   0.00
  45   1    -0.00   0.00  -0.00     0.05  -0.00   0.04     0.00  -0.00   0.00
  46   1    -0.00  -0.00  -0.00     0.03  -0.00   0.02    -0.00  -0.00   0.00
  47   1     0.00  -0.00  -0.00     0.00   0.01  -0.00    -0.00   0.00  -0.00
  48   1     0.00   0.00   0.00     0.00   0.00   0.01     0.00   0.00  -0.00
  49   1     0.00   0.00  -0.00    -0.00   0.01  -0.01     0.00   0.00  -0.00
  50   1    -0.00   0.00   0.00    -0.01   0.00  -0.01    -0.00   0.00  -0.00
  51   1    -0.00  -0.00  -0.00     0.00   0.00   0.00     0.00   0.00  -0.01
  52   1     0.01  -0.00  -0.01    -0.01  -0.03   0.00    -0.00  -0.00   0.00
  53   1     0.01   0.00   0.00    -0.00  -0.01   0.00    -0.00   0.00  -0.00
                     46                     47                     48
                        a                      a                      a 
 Frequencies --   953.4007               983.4668              1508.0028
 Red. masses --    99.0000                99.0000                99.0000
 Frc consts  --    99.0000                99.0000                99.0000
 IR Inten    --    99.0000                99.0000                99.0000
 Raman Activ --     0.0000                 0.0000                 0.0000
 Depolar     --     0.0000                 0.0000                 0.0000
 Atom AN      X      Y      Z        X      Y      Z        X      Y      Z
   1   6     0.01  -0.01   0.09    -0.01   0.02  -0.06     0.00   0.00  -0.00
   2   6    -0.01   0.00  -0.03     0.02  -0.01   0.05     0.00   0.00  -0.00
   3   6    -0.01   0.01  -0.09     0.00  -0.02   0.01     0.00  -0.00  -0.00
   4   6     0.02  -0.01   0.14    -0.03   0.00  -0.07    -0.00   0.00   0.00
   5   6    -0.02   0.01  -0.10     0.01   0.02   0.10     0.00  -0.00  -0.00
   6   6    -0.00  -0.00  -0.02     0.04   0.04  -0.09    -0.00   0.00   0.00
   7   6     0.03  -0.02   0.12    -0.06   0.00   0.03    -0.00  -0.00   0.00
   8   6    -0.03   0.00  -0.14    -0.01  -0.08   0.04    -0.00   0.00   0.00
   9   6     0.03  -0.01   0.05     0.14  -0.12  -0.11    -0.00  -0.00   0.00
  10   6     0.04   0.05   0.06    -0.20  -0.00   0.10    -0.00   0.00   0.00
  11   6    -0.04   0.03  -0.23     0.01   0.16   0.01     0.00   0.00   0.00
  12   6     0.08   0.10   0.21     0.12  -0.00  -0.03     0.00  -0.00   0.00
  13   6    -0.01  -0.16   0.14    -0.08  -0.02   0.17     0.00  -0.01   0.01
  14   6    -0.07   0.08  -0.19     0.02  -0.02  -0.15     0.01   0.01   0.00
  15   6     0.01  -0.08   0.10    -0.02  -0.02   0.03    -0.01  -0.05   0.02
  16   6    -0.03   0.02  -0.02    -0.06   0.03   0.06     0.06  -0.05   0.09
  17   6    -0.04  -0.01  -0.08     0.06  -0.03  -0.09     0.12  -0.07   0.15
  18   1    -0.10   0.14  -0.02     0.06  -0.09   0.01    -0.01  -0.00  -0.00
  19   1     0.08  -0.12  -0.07    -0.05   0.07   0.05    -0.00  -0.00   0.00
  20   1    -0.00  -0.01  -0.07    -0.01   0.02   0.05     0.00  -0.00   0.00
  21   1     0.03   0.17   0.01    -0.04  -0.12  -0.02    -0.00  -0.00  -0.00
  22   1    -0.03  -0.16   0.01     0.04   0.11  -0.02    -0.00  -0.00   0.00
  23   1     0.09   0.14   0.03    -0.02  -0.15  -0.01    -0.00   0.00  -0.00
  24   1    -0.07  -0.13   0.04     0.01   0.13  -0.00    -0.00   0.00   0.00
  25   1    -0.13   0.02  -0.03     0.05  -0.10   0.01     0.00  -0.00   0.00
  26   1     0.11  -0.01  -0.07    -0.05   0.09   0.04     0.00  -0.00  -0.00
  27   1    -0.08   0.12   0.06     0.07   0.01  -0.05    -0.00  -0.00   0.00
  28   1     0.08  -0.12   0.02    -0.08  -0.00  -0.02    -0.00   0.00  -0.00
  29   1    -0.01   0.17   0.02    -0.05  -0.07   0.03     0.00  -0.00  -0.00
  30   1     0.01  -0.16  -0.00     0.09   0.09   0.02     0.00  -0.00   0.00
  31   1     0.10   0.09  -0.05    -0.00  -0.11  -0.01     0.00   0.00  -0.00
  32   1    -0.11  -0.09  -0.04    -0.03   0.15   0.00     0.00  -0.00   0.00
  33   1    -0.12  -0.05   0.06     0.03  -0.12  -0.03     0.00  -0.00  -0.00
  34   1     0.12   0.04   0.04    -0.03   0.13  -0.00     0.00  -0.00   0.00
  35   1    -0.04   0.13  -0.01     0.12   0.03   0.02     0.00   0.00   0.00
  36   1     0.04  -0.17  -0.03    -0.03  -0.09   0.03     0.00   0.00  -0.00
[...]
  44   1    -0.03  -0.01   0.06     0.02   0.00  -0.04    -0.02  -0.01   0.05
  45   1     0.00   0.00  -0.01    -0.04  -0.01   0.10     0.04  -0.00  -0.08
  46   1    -0.00   0.00   0.00    -0.05   0.07   0.01    -0.21   0.26   0.07
  47   1     0.02   0.00  -0.04     0.03  -0.00  -0.05    -0.22  -0.04   0.52
  48   1    -0.03   0.04   0.01    -0.11   0.13   0.03     0.12  -0.14  -0.05
  49   1     0.01  -0.01  -0.00    -0.09   0.11   0.03    -0.16   0.20   0.04
  50   1    -0.01  -0.00   0.02     0.03   0.00  -0.07    -0.03  -0.01   0.07
  51   1     0.00  -0.00  -0.00     0.02  -0.02  -0.01     0.01  -0.02  -0.00
  52   1    -0.00   0.00  -0.00     0.01   0.00   0.01    -0.01   0.00  -0.00
  53   1     0.00   0.00  -0.00    -0.00  -0.00   0.01     0.02   0.00  -0.04
                    142                    143                    144
                        a                      a                      a 
 Frequencies --  2986.6286              2981.6753              2979.5264
 Red. masses --    99.0000                99.0000                99.0000
 Frc consts  --    99.0000                99.0000                99.0000
 IR Inten    --    99.0000                99.0000                99.0000
 Raman Activ --     0.0000                 0.0000                 0.0000
 Depolar     --     0.0000                 0.0000                 0.0000
 Atom AN      X      Y      Z        X      Y      Z        X      Y      Z
   1   6     0.01   0.00   0.00    -0.01  -0.01   0.00    -0.00  -0.00   0.01
   2   6    -0.03   0.00   0.00     0.07  -0.00  -0.01     0.04   0.00  -0.06
   3   6    -0.03   0.00  -0.00     0.03  -0.00   0.00    -0.03   0.01  -0.07
   4   6    -0.03   0.00  -0.01     0.01  -0.00   0.01    -0.02   0.00  -0.08
   5   6    -0.02   0.00  -0.01    -0.04   0.00   0.02    -0.07   0.01  -0.07
   6   6    -0.00   0.00  -0.02    -0.05   0.00   0.02     0.00   0.00  -0.07
   7   6     0.01   0.00  -0.03    -0.03  -0.00   0.02    -0.02   0.00  -0.04
   8   6     0.02   0.00  -0.04     0.01  -0.00   0.02     0.07  -0.00  -0.01
   9   6     0.05   0.00  -0.09     0.04  -0.00   0.00    -0.02  -0.00   0.05
  10   6    -0.01   0.00  -0.05     0.04  -0.00   0.02     0.07  -0.01   0.02
  11   6    -0.08   0.02  -0.09     0.01  -0.01   0.00     0.01  -0.03  -0.03
  12   6    -0.09   0.10   0.03    -0.01   0.04   0.04     0.01   0.00   0.02
  13   6    -0.04   0.03   0.03     0.03  -0.04   0.01     0.02  -0.03   0.02
  14   6    -0.04  -0.01   0.08     0.05  -0.01  -0.09    -0.00  -0.01   0.02
  15   6    -0.02  -0.00   0.04     0.05  -0.08   0.01    -0.00   0.01  -0.00
  16   6    -0.01  -0.01   0.03     0.04  -0.08   0.03    -0.02   0.06  -0.05
  17   6    -0.00   0.00  -0.01    -0.02   0.01  -0.01     0.01  -0.00   0.01
  18   1    -0.00   0.00   0.01     0.01  -0.00  -0.02     0.02  -0.00  -0.04
  19   1    -0.01   0.00  -0.01     0.02  -0.00   0.02    -0.02   0.00  -0.01
  20   1    -0.01  -0.01   0.00     0.02   0.02  -0.00     0.01   0.01   0.00
  21   1     0.04   0.00  -0.09    -0.08  -0.01   0.20    -0.13  -0.01   0.28
  22   1     0.08  -0.01   0.08    -0.17   0.02  -0.18    -0.04   0.00  -0.05
  23   1     0.03   0.00  -0.07    -0.02  -0.00   0.05    -0.05  -0.00   0.08
  24   1     0.07  -0.01   0.07    -0.07   0.01  -0.07     0.17  -0.01   0.16
  25   1     0.03   0.00  -0.06     0.01   0.00  -0.01    -0.08  -0.00   0.14
  26   1     0.07  -0.01   0.08    -0.03   0.00  -0.03     0.14  -0.01   0.14
  27   1     0.05  -0.00   0.05     0.07  -0.01   0.08     0.26  -0.02   0.27
  28   1     0.00   0.00  -0.01     0.07   0.00  -0.15     0.00   0.00  -0.03
  29   1     0.03  -0.00   0.03     0.07  -0.01   0.09     0.07  -0.01   0.07
  30   1    -0.02  -0.00   0.04     0.09   0.01  -0.17    -0.09  -0.01   0.16
  31   1     0.00   0.00  -0.00     0.04  -0.00   0.06     0.09  -0.01   0.10
  32   1    -0.06  -0.00   0.10     0.07   0.00  -0.13    -0.02  -0.00   0.03
  33   1     0.01  -0.00   0.00    -0.04   0.00  -0.04    -0.15   0.01  -0.18
  34   1    -0.07  -0.00   0.14     0.01  -0.00  -0.01    -0.12  -0.01   0.23
  35   1    -0.19  -0.00   0.35    -0.06  -0.00   0.11     0.10   0.00  -0.18
  36   1    -0.00  -0.00  -0.02    -0.09   0.01  -0.11     0.00  -0.00   0.01
  37   1    -0.05  -0.00   0.07    -0.04  -0.01   0.07    -0.10  -0.01   0.17
  38   1     0.08  -0.01   0.10    -0.10   0.01  -0.13    -0.16   0.03  -0.22
  39   1    -0.01   0.00  -0.01    -0.02   0.03   0.01    -0.09   0.12   0.03
  40   1     0.29  -0.06   0.33    -0.00  -0.00  -0.00     0.07  -0.02   0.08
  41   1     0.34  -0.37  -0.08     0.17  -0.18  -0.03     0.01  -0.01  -0.00
  42   1    -0.03   0.01  -0.02    -0.12   0.01  -0.12    -0.05   0.00  -0.06
  43   1     0.10  -0.11  -0.03    -0.14   0.15   0.05    -0.10   0.11   0.04
  44   1     0.03   0.02  -0.07     0.03   0.01  -0.08     0.05   0.01  -0.10
  45   1     0.12   0.03  -0.31    -0.13  -0.03   0.33     0.04   0.01  -0.09
  46   1    -0.00  -0.00   0.01    -0.05   0.07   0.01    -0.03   0.04   0.01
  47   1     0.06   0.01  -0.13     0.06   0.00  -0.12    -0.01  -0.00   0.01
  48   1    -0.00  -0.00   0.00    -0.24   0.29   0.07     0.01  -0.02  -0.00
  49   1    -0.03   0.04   0.01    -0.23   0.28   0.07     0.16  -0.19  -0.05
  50   1     0.05   0.01  -0.12     0.09   0.01  -0.19    -0.10  -0.01   0.23
  51   1     0.00  -0.00  -0.00     0.04  -0.05  -0.01    -0.01   0.02   0.00
  52   1     0.01  -0.00   0.01     0.03   0.00   0.03    -0.02  -0.00  -0.02
  53   1    -0.01  -0.00   0.03    -0.01  -0.00   0.02     0.01   0.00  -0.02
                    145                    146                    147
                        a                      a                      a 
 Frequencies --  2976.2631              2976.9773              2978.3596
 Red. masses --    99.0000                99.0000                99.0000
 Frc consts  --    99.0000                99.0000                99.0000
 IR Inten    --    99.0000                99.0000                99.0000
 Raman Activ --     0.0000                 0.0000                 0.0000
 Depolar     --     0.0000                 0.0000                 0.0000
 Atom AN      X      Y      Z        X      Y      Z        X      Y      Z
   1   6     0.01   0.00  -0.01    -0.00  -0.00  -0.01    -0.00  -0.00   0.00
   2   6    -0.05  -0.00   0.04     0.08  -0.00   0.02     0.05  -0.00  -0.03
   3   6    -0.02  -0.00   0.04    -0.08   0.00   0.06    -0.03   0.00  -0.02
   4   6     0.11  -0.00   0.01     0.00  -0.00   0.05    -0.02   0.00  -0.02
   5   6    -0.01   0.00   0.01    -0.05  -0.00   0.04    -0.05   0.00  -0.01
   6   6     0.06  -0.00  -0.01     0.08  -0.00  -0.00     0.02   0.00  -0.01
   7   6    -0.13   0.01  -0.01     0.02   0.00  -0.02     0.01  -0.00  -0.00
   8   6    -0.01   0.00  -0.03    -0.00   0.00  -0.04     0.05  -0.00   0.00
   9   6    -0.00   0.00  -0.03    -0.02   0.00  -0.06    -0.01   0.00   0.03
  10   6     0.06  -0.00  -0.01    -0.08   0.01  -0.03     0.01  -0.00   0.01
  11   6     0.02  -0.02   0.00    -0.01   0.03   0.03     0.00   0.01   0.01
  12   6     0.00   0.00   0.01     0.00  -0.00   0.00    -0.01  -0.02  -0.05
  13   6    -0.01   0.01  -0.00     0.01  -0.03   0.01    -0.04   0.09  -0.05
  14   6    -0.01   0.01   0.00     0.01  -0.01  -0.01    -0.03   0.03   0.01
  15   6    -0.01   0.01   0.00     0.02  -0.03   0.00    -0.03   0.04  -0.00
  16   6    -0.00  -0.01   0.02     0.00   0.02  -0.03     0.01  -0.08   0.09
  17   6     0.00  -0.00  -0.00    -0.00   0.00   0.00    -0.00  -0.00  -0.01
  18   1    -0.01   0.00   0.03    -0.01  -0.00   0.01     0.01  -0.00  -0.01
  19   1    -0.01   0.00  -0.01     0.01  -0.00   0.01    -0.00  -0.00   0.00
  20   1    -0.01  -0.01   0.00     0.01   0.01  -0.00     0.01   0.01  -0.00
  21   1     0.10   0.01  -0.24    -0.06  -0.01   0.16    -0.08  -0.01   0.20
  22   1     0.09  -0.01   0.10    -0.24   0.02  -0.24    -0.09   0.01  -0.10
  23   1     0.08   0.00  -0.17     0.17   0.01  -0.38     0.02   0.00  -0.05
  24   1     0.02  -0.00   0.03     0.14  -0.01   0.16     0.10  -0.01   0.10
  25   1    -0.11  -0.01   0.27     0.04   0.00  -0.08    -0.01   0.00   0.01
  26   1    -0.28   0.03  -0.30    -0.08   0.01  -0.08     0.06  -0.01   0.06
  27   1     0.02  -0.00   0.03     0.08  -0.01   0.09     0.13  -0.01   0.14
  28   1     0.04   0.00  -0.08     0.11   0.01  -0.23     0.05   0.00  -0.11
  29   1    -0.13   0.01  -0.15    -0.19   0.02  -0.22    -0.03   0.00  -0.03
  30   1    -0.10  -0.01   0.20    -0.11  -0.01   0.23    -0.04  -0.00   0.08
  31   1     0.30  -0.03   0.36    -0.01   0.00  -0.01    -0.02   0.00  -0.03
  32   1     0.16   0.01  -0.34    -0.05  -0.00   0.09    -0.02  -0.00   0.04
  33   1     0.04  -0.00   0.04     0.05  -0.00   0.06    -0.12   0.01  -0.14
  34   1    -0.03  -0.00   0.05    -0.05  -0.00   0.09    -0.06  -0.00   0.13
  35   1    -0.04  -0.00   0.06    -0.05  -0.00   0.07     0.06   0.00  -0.10
  36   1     0.05  -0.00   0.06     0.12  -0.01   0.14     0.00  -0.00   0.01
  37   1    -0.11  -0.01   0.18     0.10   0.01  -0.18    -0.01  -0.00   0.02
  38   1    -0.11   0.02  -0.16     0.21  -0.03   0.28    -0.03   0.00  -0.04
  39   1    -0.04   0.06   0.02     0.10  -0.13  -0.03     0.03  -0.04  -0.01
  40   1    -0.02   0.00  -0.02    -0.08   0.02  -0.08    -0.03   0.01  -0.04
  41   1     0.02  -0.02  -0.00     0.00  -0.00   0.00    -0.10   0.10   0.02
  42   1    -0.02   0.00  -0.02    -0.01  -0.00  -0.01     0.14  -0.01   0.15
  43   1     0.03  -0.04  -0.01    -0.08   0.09   0.03     0.27  -0.30  -0.11
  44   1    -0.01  -0.00   0.02     0.04   0.01  -0.08    -0.12  -0.04   0.28
  45   1    -0.00   0.00   0.01    -0.02  -0.01   0.05     0.01   0.01  -0.02
  46   1     0.03  -0.04  -0.01    -0.02   0.03   0.01     0.09  -0.11  -0.03
  47   1    -0.00   0.00   0.00     0.02   0.00  -0.05    -0.03   0.00   0.06
  48   1     0.03  -0.04  -0.01    -0.08   0.10   0.02     0.13  -0.16  -0.04
  49   1    -0.02   0.03   0.01     0.04  -0.05  -0.02    -0.22   0.26   0.07
  50   1     0.03   0.01  -0.07    -0.05  -0.01   0.11     0.18   0.03  -0.41
  51   1    -0.00   0.00  -0.00     0.00  -0.00   0.00     0.00  -0.01  -0.00
  52   1     0.00  -0.00   0.00    -0.00   0.00  -0.00     0.02  -0.00   0.02
  53   1    -0.00  -0.00   0.01     0.00   0.00  -0.01    -0.02  -0.00   0.03
                    148                    149                    150
                        a                      a                      a 
 Frequencies --  3032.0494              3032.0188              2980.8518
 Red. masses --    99.0000                99.0000                99.0000
 Frc consts  --    99.0000                99.0000                99.0000
 IR Inten    --    99.0000                99.0000                99.0000
 Raman Activ --     0.0000                 0.0000                 0.0000
 Depolar     --     0.0000                 0.0000                 0.0000
 Atom AN      X      Y      Z        X      Y      Z        X      Y      Z
   1   6    -0.07  -0.04   0.01    -0.24  -0.13   0.04    -0.01  -0.00  -0.01
   2   6    -0.01  -0.00   0.00    -0.03  -0.00   0.01     0.07  -0.00   0.04
   3   6    -0.00  -0.00   0.00    -0.01  -0.00   0.00     0.03  -0.00   0.07
   4   6    -0.00   0.00   0.00    -0.00   0.00   0.00     0.01  -0.01   0.09
   5   6    -0.00   0.00   0.00    -0.00  -0.00   0.00    -0.03  -0.00   0.11
   6   6    -0.00   0.00  -0.00    -0.00   0.00   0.00    -0.02  -0.00   0.11
   7   6    -0.00   0.00  -0.00    -0.00  -0.00   0.00    -0.01  -0.00   0.09
   8   6    -0.00   0.00  -0.00    -0.00   0.00   0.00     0.03  -0.00   0.06
   9   6    -0.00   0.00  -0.00    -0.00  -0.00   0.00     0.04  -0.00   0.03
  10   6    -0.00   0.00  -0.00    -0.00  -0.00   0.00     0.03  -0.00   0.01
  11   6    -0.00   0.00  -0.00     0.00   0.00   0.00    -0.02  -0.02  -0.05
  12   6    -0.00   0.00  -0.00     0.00  -0.00   0.00    -0.00  -0.01  -0.01
  13   6    -0.00   0.00  -0.00     0.00  -0.00   0.00    -0.02   0.02   0.01
  14   6    -0.00   0.00  -0.00     0.00  -0.00   0.00    -0.03   0.01   0.06
  15   6    -0.00   0.01  -0.01     0.00  -0.00   0.00    -0.03   0.04  -0.00
  16   6    -0.01   0.02  -0.02     0.00  -0.01   0.01    -0.03   0.05  -0.02
  17   6    -0.15   0.10  -0.21     0.04  -0.03   0.06     0.01  -0.01   0.00
  18   1     0.05  -0.00  -0.12     0.17  -0.01  -0.44    -0.01  -0.00   0.01
  19   1     0.09  -0.02   0.10     0.30  -0.05   0.33     0.04  -0.00   0.03
  20   1     0.11   0.15  -0.01     0.38   0.52  -0.04     0.01   0.02  -0.00
  21   1     0.01   0.00  -0.02     0.03   0.00  -0.07    -0.03  -0.00   0.09
  22   1     0.02  -0.00   0.02     0.05  -0.00   0.05    -0.23   0.02  -0.23
  23   1     0.01   0.00  -0.01     0.02   0.00  -0.04     0.06   0.00  -0.11
  24   1     0.01  -0.00   0.01     0.03  -0.00   0.03    -0.15   0.01  -0.14
  25   1     0.00  -0.00  -0.00     0.01  -0.00  -0.01     0.09   0.01  -0.17
  26   1     0.00  -0.00   0.00     0.01  -0.00   0.01    -0.14   0.01  -0.14
  27   1     0.00  -0.00   0.00     0.01  -0.00   0.01    -0.07   0.00  -0.05
  28   1     0.00   0.00  -0.00     0.00   0.00  -0.01     0.16   0.01  -0.31
  29   1     0.00  -0.00   0.00     0.00  -0.00   0.00    -0.09   0.01  -0.08
  30   1     0.00   0.00  -0.00     0.00   0.00  -0.00     0.16   0.01  -0.29
  31   1     0.00  -0.00   0.00     0.00  -0.00   0.00    -0.09   0.01  -0.09
  32   1     0.00   0.00  -0.00     0.00   0.00  -0.00     0.12   0.01  -0.22
  33   1     0.00  -0.00   0.00     0.00  -0.00   0.00    -0.14   0.01  -0.16
  34   1     0.00  -0.00  -0.00     0.00   0.00  -0.00     0.04   0.00  -0.06
  35   1     0.00   0.00  -0.00     0.00   0.00  -0.00    -0.01  -0.00   0.03
  36   1     0.00  -0.00   0.00     0.00   0.00   0.00    -0.11   0.01  -0.13
  37   1    -0.00  -0.00   0.00     0.00   0.00  -0.00    -0.05  -0.01   0.08
  38   1     0.00  -0.00   0.00     0.00  -0.00   0.00    -0.08   0.01  -0.11
  39   1     0.00  -0.00  -0.00     0.00  -0.00  -0.00    -0.07   0.09   0.02
  40   1     0.00  -0.00   0.00    -0.00   0.00  -0.00     0.14  -0.03   0.15
  41   1     0.00  -0.00  -0.00    -0.00   0.00   0.00    -0.02   0.02   0.00
  42   1     0.00  -0.00   0.00    -0.00   0.00  -0.00     0.03  -0.00   0.03
  43   1     0.01  -0.01  -0.00    -0.00   0.00   0.00     0.06  -0.06  -0.02
  44   1    -0.00  -0.00   0.01     0.00   0.00  -0.00    -0.00   0.00   0.01
  45   1    -0.01  -0.00   0.02     0.00   0.00  -0.01     0.08   0.02  -0.21
  46   1     0.01  -0.01  -0.00    -0.00   0.00   0.00     0.02  -0.03  -0.00
  47   1    -0.02  -0.00   0.04     0.01   0.00  -0.01    -0.02   0.00   0.04
  48   1     0.03  -0.03  -0.01    -0.01   0.01   0.00     0.12  -0.15  -0.04
  49   1     0.05  -0.05  -0.02    -0.01   0.02   0.00     0.15  -0.18  -0.05
  50   1    -0.03  -0.00   0.07     0.01   0.00  -0.02    -0.06  -0.00   0.12
  51   1     0.24  -0.32  -0.11    -0.07   0.09   0.03    -0.02   0.03   0.01
  52   1     0.49   0.01   0.45    -0.14  -0.00  -0.13    -0.02  -0.00  -0.02
  53   1    -0.21  -0.03   0.41     0.06   0.01  -0.12     0.01   0.00  -0.01
                    151                    152                    153
                        a                      a                      a 
 Frequencies --  2990.8548              3037.5281              3037.5846
 Red. masses --    99.0000                99.0000                99.0000
 Frc consts  --    99.0000                99.0000                99.0000
 IR Inten    --    99.0000                99.0000                99.0000
 Raman Activ --     0.0000                 0.0000                 0.0000
 Depolar     --     0.0000                 0.0000                 0.0000
 Atom AN      X      Y      Z        X      Y      Z        X      Y      Z
   1   6     0.02   0.01  -0.00    -0.03   0.13   0.01     0.01  -0.06  -0.01
   2   6    -0.05   0.00   0.01    -0.00   0.01   0.00     0.00  -0.00  -0.00
   3   6    -0.06   0.00   0.01    -0.00  -0.00   0.00     0.00   0.00  -0.00
   4   6    -0.08   0.00   0.01     0.00   0.00   0.00    -0.00  -0.00  -0.00
   5   6    -0.08   0.00   0.01    -0.00   0.00   0.00     0.00  -0.00  -0.00
   6   6    -0.08   0.00   0.01     0.00  -0.00  -0.00    -0.00   0.00   0.00
   7   6    -0.06   0.00  -0.00    -0.00   0.00   0.00     0.00  -0.00  -0.00
   8   6    -0.05   0.00  -0.01     0.00  -0.00  -0.00    -0.00   0.00  -0.00
   9   6    -0.02   0.00  -0.02    -0.00   0.00   0.00    -0.00   0.00  -0.00
  10   6    -0.02   0.00  -0.02    -0.00   0.00  -0.00    -0.00   0.00  -0.00
  11   6     0.00  -0.02  -0.03    -0.00  -0.00  -0.00    -0.00   0.00  -0.00
  12   6     0.05  -0.08  -0.04    -0.00  -0.00  -0.00    -0.00  -0.00  -0.00
  13   6     0.02  -0.03  -0.00    -0.00   0.00  -0.00    -0.00   0.00  -0.00
  14   6     0.01  -0.03   0.03     0.00  -0.00  -0.00     0.00   0.00  -0.00
  15   6     0.01  -0.02   0.01    -0.00   0.00  -0.00    -0.00   0.00  -0.00
  16   6     0.01  -0.02   0.01     0.00   0.00  -0.00     0.00   0.01  -0.00
  17   6    -0.01   0.00  -0.01     0.04   0.05   0.01     0.09   0.10   0.02
  18   1    -0.01   0.00   0.03     0.19   0.02  -0.41    -0.09  -0.01   0.19
  19   1    -0.03   0.00  -0.03     0.32  -0.01   0.31    -0.15   0.01  -0.14
  20   1    -0.02  -0.03   0.00    -0.39  -0.49   0.05     0.18   0.23  -0.02
  21   1     0.06   0.01  -0.15     0.00   0.00  -0.01    -0.00  -0.00   0.00
  22   1     0.12  -0.01   0.12     0.00   0.00   0.01    -0.00  -0.00  -0.00
  23   1     0.07   0.00  -0.17     0.00   0.00  -0.01    -0.00  -0.00   0.00
  24   1     0.13  -0.01   0.14     0.01  -0.00   0.01    -0.00   0.00  -0.00
  25   1     0.10   0.01  -0.22     0.00  -0.00  -0.00     0.00   0.00  -0.00
  26   1     0.17  -0.02   0.19     0.00  -0.00   0.00     0.00   0.00   0.00
  27   1     0.17  -0.02   0.20     0.00  -0.00   0.00    -0.00   0.00  -0.00
  28   1     0.10   0.01  -0.22     0.00   0.00  -0.00    -0.00  -0.00   0.00
  29   1     0.17  -0.02   0.20    -0.00   0.00  -0.00     0.00  -0.00   0.00
  30   1     0.11   0.01  -0.22    -0.00  -0.00   0.00     0.00   0.00  -0.00
  31   1     0.14  -0.01   0.17     0.00  -0.00   0.00    -0.00   0.00  -0.00
  32   1     0.08   0.01  -0.16     0.00   0.00  -0.00    -0.00  -0.00   0.00
  33   1     0.12  -0.01   0.14    -0.00   0.00  -0.00     0.00  -0.00   0.00
  34   1     0.06   0.00  -0.12    -0.00  -0.00   0.00     0.00   0.00  -0.00
  35   1    -0.01   0.00   0.01     0.00   0.00  -0.00    -0.00  -0.00   0.00
  36   1     0.06  -0.00   0.07     0.00  -0.00   0.00     0.00  -0.00   0.00
  37   1    -0.00  -0.00  -0.01     0.00   0.00  -0.00     0.00   0.00  -0.00
  38   1     0.05  -0.01   0.07     0.00  -0.00   0.00     0.00  -0.00   0.00
  39   1    -0.06   0.08   0.02    -0.00   0.00   0.00     0.00  -0.00  -0.00
  40   1     0.07  -0.02   0.07     0.00  -0.00   0.00     0.00  -0.00   0.00
  41   1    -0.27   0.29   0.06    -0.00   0.00   0.00    -0.00   0.00   0.00
  42   1     0.08  -0.01   0.08     0.00  -0.00   0.00     0.00  -0.00   0.00
  43   1    -0.09   0.10   0.03     0.00  -0.00  -0.00     0.00  -0.00  -0.00
  44   1     0.01  -0.00  -0.02    -0.00  -0.00   0.00    -0.00  -0.00   0.00
  45   1     0.06   0.01  -0.15    -0.00  -0.00   0.00    -0.00  -0.00   0.00
  46   1    -0.09   0.11   0.03    -0.00  -0.00  -0.00     0.00  -0.00  -0.00
  47   1     0.03   0.00  -0.06    -0.00  -0.00   0.01    -0.01  -0.00   0.01
  48   1    -0.05   0.07   0.02     0.00  -0.00  -0.00     0.01  -0.01  -0.00
  49   1    -0.05   0.06   0.02     0.00  -0.00  -0.00     0.01  -0.01  -0.00
  50   1     0.03   0.00  -0.06    -0.00   0.00   0.00    -0.00   0.00   0.01
  51   1     0.01  -0.01  -0.00     0.14  -0.16  -0.04     0.29  -0.35  -0.08
  52   1     0.01   0.00   0.01    -0.21   0.01  -0.19    -0.44   0.01  -0.42
  53   1    -0.01  -0.00   0.01    -0.08  -0.01   0.20    -0.18  -0.03   0.44
