      -----------------------------------------------------------      
     |                   =====================                   |     
     |                           x T B                           |     
     |                   =====================                   |     
     |                         S. Grimme                         |     
     |          Mulliken Center for Theoretical Chemistry        |     
     |                    University of Bonn                     |     
      -----------------------------------------------------------      

   * xtb version 6.6.1 (8d0f1dd) compiled by 'stahn@M-Bot' on 2023-08-01

   xtb is free software: you can redistribute it and/or modify it under
   the terms of the GNU Lesser General Public License as published by
   the Free Software Foundation, either version 3 of the License, or
   (at your option) any later version.
   
   xtb is distributed in the hope that it will be useful,
   but WITHOUT ANY WARRANTY; without even the implied warranty of
   MERCHANTABILITY or FITNESS FOR A PARTICULAR PURPOSE.  See the
   GNU Lesser General Public License for more details.
   
   Cite this work as:
   * C. Bannwarth, E. Caldeweyher, S. Ehlert, A. Hansen, P. Pracht,
     J. Seibert, S. Spicher, S. Grimme, WIREs Comput. Mol. Sci., 2020, 11,
     e01493. DOI: 10.1002/wcms.1493
   
   for GFN2-xTB:
   * C. Bannwarth, S. Ehlert and S. Grimme., J. Chem. Theory Comput., 2019,
     15, 1652-1671. DOI: 10.1021/acs.jctc.8b01176
   for GFN1-xTB:
   * S. Grimme, C. Bannwarth, P. Shushkov, J. Chem. Theory Comput., 2017,
     13, 1989-2009. DOI: 10.1021/acs.jctc.7b00118
   for GFN0-xTB:
   * P. Pracht, E. Caldeweyher, S. Ehlert, S. Grimme, ChemRxiv, 2019, preprint.
     DOI: 10.26434/chemrxiv.8326202.v1
   for GFN-FF:
   * S. Spicher and S. Grimme, Angew. Chem. Int. Ed., 2020, 59, 15665-15673.
     DOI: 10.1002/anie.202004239
   
   for ALPB and GBSA implicit solvation:
   * S. Ehlert, M. Stahn, S. Spicher, S. Grimme, J. Chem. Theory Comput.,
     2021, 17, 4250-4261. DOI: 10.1021/acs.jctc.1c00471
   
   for DFT-D4:
   * E. Caldeweyher, C. Bannwarth and S. Grimme, J. Chem. Phys., 2017,
     147, 034112. DOI: 10.1063/1.4993215
   * E. Caldeweyher, S. Ehlert, A. Hansen, H. Neugebauer, S. Spicher,
     C. Bannwarth and S. Grimme, J. Chem. Phys., 2019, 150, 154122.
     DOI: 10.1063/1.5090222
   * E. Caldeweyher, J.-M. Mewes, S. Ehlert and S. Grimme, Phys. Chem. Chem. Phys.
     2020, 22, 8499-8512. DOI: 10.1039/D0CP00502A
   
   for sTDA-xTB:
   * S. Grimme and C. Bannwarth, J. Chem. Phys., 2016, 145, 054103.
     DOI: 10.1063/1.4959605
   
   in the mass-spec context:
   * V. Asgeirsson, C. Bauer and S. Grimme, Chem. Sci., 2017, 8, 4879.
     DOI: 10.1039/c7sc00601b
   * J. Koopman and S. Grimme, ACS Omega 2019, 4, 12, 15120-15133.
     DOI: 10.1021/acsomega.9b02011
   
   for metadynamics refer to:
   * S. Grimme, J. Chem. Theory Comput., 2019, 155, 2847-2862
     DOI: 10.1021/acs.jctc.9b00143
   
   for SPH calculations refer to:
   * S. Spicher and S. Grimme, J. Chem. Theory Comput., 2021, 17, 1701-1714
     DOI: 10.1021/acs.jctc.0c01306
   
   with help from (in alphabetical order)
   P. Atkinson, C. Bannwarth, F. Bohle, G. Brandenburg, E. Caldeweyher
   M. Checinski, S. Dohm, S. Ehlert, S. Ehrlich, I. Gerasimov, C. Hölzer
   A. Katbashev, J. Koopman, C. Lavigne, S. Lehtola, F. März, M. Müller,
   F. Musil, H. Neugebauer, J. Pisarek, C. Plett, P. Pracht, F. Pultar,
   J. Seibert, P. Shushkov, S. Spicher, M. Stahn, M. Steiner, T. Strunk,
   J. Stückrath, T. Rose, and J. Unsleber
   
 * started run on 2024/04/23 at 12:10:55.867     

           -------------------------------------------------
          |                Calculation Setup                |
           -------------------------------------------------

          program call               : xtb unfolded.xyz --gfn 2 --ohess -P 4
          coordinate file            : unfolded.xyz
          omp threads                :                     4

   ID    Z sym.   atoms
    1    6 C      1-17
    2    1 H      18-53

           -------------------------------------------------
          |                 G F N 2 - x T B                 |
           -------------------------------------------------

        Reference                      10.1021/acs.jctc.8b01176
      * Hamiltonian:
        H0-scaling (s, p, d)           1.850000    2.230000    2.230000
        zeta-weighting                 0.500000
      * Dispersion:
        s8                             2.700000
        a1                             0.520000
        a2                             5.000000
        s9                             5.000000
      * Repulsion:
        kExp                           1.500000    1.000000
        rExp                           1.000000
      * Coulomb:
        alpha                          2.000000
        third order                    shell-resolved
        anisotropic                    true
        a3                             3.000000
        a5                             4.000000
        cn-shift                       1.200000
        cn-exp                         4.000000
        max-rad                        5.000000


          ...................................................
          :                      SETUP                      :
          :.................................................:
          :  # basis functions                 104          :
          :  # atomic orbitals                 104          :
          :  # shells                           70          :
          :  # electrons                       104          :
          :  max. iterations                   250          :
          :  Hamiltonian                  GFN2-xTB          :
          :  restarted?                      false          :
          :  GBSA solvation                  false          :
          :  PC potential                    false          :
          :  electronic temp.          300.0000000     K    :
          :  accuracy                    1.0000000          :
          :  -> integral cutoff          0.2500000E+02      :
          :  -> integral neglect         0.1000000E-07      :
          :  -> SCF convergence          0.1000000E-05 Eh   :
          :  -> wf. convergence          0.1000000E-03 e    :
          :  Broyden damping             0.4000000          :
          ...................................................

 iter      E             dE          RMSdq      gap      omega  full diag
   1    -55.4500652 -0.554501E+02  0.253E+00   11.85       0.0  T
   2    -55.5882430 -0.138178E+00  0.138E+00   11.84       1.0  T
   3    -55.5901204 -0.187741E-02  0.732E-01   11.84       1.0  T
   4    -55.5905077 -0.387310E-03  0.827E-02   11.88       1.0  T
   5    -55.5905174 -0.967907E-05  0.419E-02   11.88       1.0  T
   6    -55.5905210 -0.360583E-05  0.217E-03   11.88       6.3  T
   7    -55.5905211 -0.779567E-07  0.927E-04   11.88      14.8  T
   8    -55.5905211 -0.391874E-08  0.341E-04   11.88      40.3  T

   *** convergence criteria satisfied after 8 iterations ***

         #    Occupation            Energy/Eh            Energy/eV
      -------------------------------------------------------------
         1        2.0000           -0.6224296             -16.9372
       ...           ...                  ...                  ...
        46        2.0000           -0.4208462             -11.4518
        47        2.0000           -0.4173169             -11.3558
        48        2.0000           -0.4157468             -11.3130
        49        2.0000           -0.4143388             -11.2747
        50        2.0000           -0.4128854             -11.2352
        51        2.0000           -0.4102332             -11.1630
        52        2.0000           -0.4095800             -11.1452 (HOMO)
        53                          0.0269222               0.7326 (LUMO)
        54                          0.0484850               1.3193
        55                          0.0684932               1.8638
        56                          0.0804622               2.1895
        57                          0.0912650               2.4834
       ...                                ...                  ...
       104                          0.3092375               8.4148
      -------------------------------------------------------------
                  HL-Gap            0.4365022 Eh           11.8778 eV
             Fermi-level           -0.1913289 Eh           -5.2063 eV

 SCC (total)                   0 d,  0 h,  0 min,  0.042 sec
 SCC setup                      ...        0 min,  0.001 sec (  1.840%)
 Dispersion                     ...        0 min,  0.001 sec (  1.473%)
 classical contributions        ...        0 min,  0.001 sec (  2.798%)
 integral evaluation            ...        0 min,  0.002 sec (  4.864%)
 iterations                     ...        0 min,  0.029 sec ( 70.600%)
 molecular gradient             ...        0 min,  0.007 sec ( 17.438%)
 printout                       ...        0 min,  0.000 sec (  0.903%)

         :::::::::::::::::::::::::::::::::::::::::::::::::::::
         ::                     SUMMARY                     ::
         :::::::::::::::::::::::::::::::::::::::::::::::::::::
         :: total energy             -54.797019663625 Eh    ::
         :: gradient norm              0.036776560842 Eh/a0 ::
         :: HOMO-LUMO gap             11.877830524984 eV    ::
         ::.................................................::
         :: SCC energy               -55.590521064735 Eh    ::
         :: -> isotropic ES            0.008381784036 Eh    ::
         :: -> anisotropic ES          0.017887754155 Eh    ::
         :: -> anisotropic XC          0.032348080020 Eh    ::
         :: -> dispersion             -0.035514371218 Eh    ::
         :: repulsion energy           0.793854511693 Eh    ::
         :: add. restraining           0.000000000000 Eh    ::
         :: total charge               0.000000000000 e     ::
         :::::::::::::::::::::::::::::::::::::::::::::::::::::

      ----------------------------------------------------------- 
     |                   =====================                   |
     |                        A N C O P T                        |
     |                   =====================                   |
     |               Approximate Normal Coordinate               |
     |                Rational Function Optimizer                |
      ----------------------------------------------------------- 

          ...................................................
          :                      SETUP                      :
          :.................................................:
          :   optimization level            normal          :
          :   max. optcycles                   200          :
          :   ANC micro-cycles                  20          :
          :   degrees of freedom               153          :
          :.................................................:
          :   RF solver                   davidson          :
          :   write xtbopt.log                true          :
          :   linear?                        false          :
          :   energy convergence         0.5000000E-05 Eh   :
          :   grad. convergence          0.1000000E-02 Eh/α :
          :   maxmium RF displ.          2.0000000          :
          :   Hlow (freq-cutoff)         0.2000000E-01      :
          :   Hmax (freq-cutoff)         5.0000000          :
          :   S6 in model hess.         70.0000000          :
          ...................................................

generating ANC from model Hessian ...
Using Lindh-Hessian (1995)
 Shifting diagonal of input Hessian by   1.984417481398763E-002
 Lowest  eigenvalues of input Hessian
    0.000000    0.000000    0.000000    0.000000    0.000000    0.000000
    0.020000    0.020432    0.020498    0.021332    0.021705    0.022184
    0.023023    0.023143    0.023492    0.024104    0.024508    0.025201
 Highest eigenvalues
    1.250429    1.260075    1.284214    1.310573    1.326564    1.339853
 

........................................................................
.............................. CYCLE    1 ..............................
........................................................................

 iter      E             dE          RMSdq      gap      omega  full diag
   1    -55.5905211 -0.555905E+02  0.846E-05   11.88       0.0  T
   2    -55.5905211 -0.156888E-10  0.491E-05   11.88     279.9  T
   3    -55.5905211 -0.242295E-11  0.968E-06   11.88    1418.4  T
     SCC iter.                  ...        0 min,  0.005 sec
     gradient                   ...        0 min,  0.007 sec
 * total energy  :   -54.7970197 Eh     change       -0.3944791E-09 Eh
   gradient norm :     0.0367763 Eh/α   predicted     0.0000000E+00 (-100.00%)
   displ. norm   :     0.2077197 α      lambda       -0.4435193E-02
   maximum displ.:     0.1048827 α      in ANC's #70, #69, #71, ...

........................................................................
.............................. CYCLE    2 ..............................
........................................................................

 iter      E             dE          RMSdq      gap      omega  full diag
   1    -55.6042202 -0.556042E+02  0.135E-01   11.93       0.0  T
   2    -55.6042264 -0.627490E-05  0.774E-02   11.93       1.0  T
   3    -55.6042277 -0.125329E-05  0.326E-03   11.93       4.2  T
   4    -55.6042277 -0.580598E-07  0.130E-03   11.93      10.6  T
   5    -55.6042277 -0.213099E-08  0.640E-04   11.93      21.5  T
   6    -55.6042277 -0.874657E-09  0.352E-05   11.93     390.6  T
     SCC iter.                  ...        0 min,  0.010 sec
     gradient                   ...        0 min,  0.007 sec
 * total energy  :   -54.7999816 Eh     change       -0.2961907E-02 Eh
   gradient norm :     0.0168317 Eh/α   predicted    -0.2313308E-02 ( -21.90%)
   displ. norm   :     0.1343542 α      lambda       -0.9495748E-03
   maximum displ.:     0.0450326 α      in ANC's #70, #8, #15, ...

........................................................................
.............................. CYCLE    3 ..............................
........................................................................

 iter      E             dE          RMSdq      gap      omega  full diag
   1    -55.6143066 -0.556143E+02  0.679E-02   11.96       0.0  T
   2    -55.6143109 -0.432232E-05  0.383E-02   11.96       1.0  T
   3    -55.6143111 -0.238486E-06  0.364E-03   11.96       3.8  T
   4    -55.6143111 -0.373458E-07  0.707E-04   11.96      19.4  T
   5    -55.6143112 -0.219794E-08  0.397E-04   11.96      34.6  T
     SCC iter.                  ...        0 min,  0.007 sec
     gradient                   ...        0 min,  0.009 sec
 * total energy  :   -54.8005130 Eh     change       -0.5313962E-03 Eh
   gradient norm :     0.0025764 Eh/α   predicted    -0.4833764E-03 (  -9.04%)
   displ. norm   :     0.0586417 α      lambda       -0.7300203E-04
   maximum displ.:     0.0266793 α      in ANC's #15, #8, #9, ...

........................................................................
.............................. CYCLE    4 ..............................
........................................................................

 iter      E             dE          RMSdq      gap      omega  full diag
   1    -55.6167170 -0.556167E+02  0.136E-02   11.99       0.0  T
   2    -55.6167172 -0.203861E-06  0.771E-03   11.99       1.8  T
   3    -55.6167172 -0.536021E-08  0.899E-04   11.99      15.3  T
   4    -55.6167172 -0.206751E-08  0.158E-04   11.99      87.1  T
     SCC iter.                  ...        0 min,  0.005 sec
     gradient                   ...        0 min,  0.007 sec
 * total energy  :   -54.8005721 Eh     change       -0.5908997E-04 Eh
   gradient norm :     0.0017763 Eh/α   predicted    -0.3787945E-04 ( -35.90%)
   displ. norm   :     0.1743766 α      lambda       -0.1012100E-03
   maximum displ.:     0.0798727 α      in ANC's #8, #15, #9, ...

........................................................................
.............................. CYCLE    5 ..............................
........................................................................

 iter      E             dE          RMSdq      gap      omega  full diag
   1    -55.6202458 -0.556202E+02  0.338E-02   12.08       0.0  T
   2    -55.6202461 -0.292826E-06  0.196E-02   12.08       1.0  T
   3    -55.6202462 -0.414355E-07  0.921E-04   12.08      14.9  T
   4    -55.6202462 -0.487960E-08  0.393E-04   12.08      34.9  T
     SCC iter.                  ...        0 min,  0.006 sec
     gradient                   ...        0 min,  0.007 sec
 * total energy  :   -54.8006422 Eh     change       -0.7017250E-04 Eh
   gradient norm :     0.0043493 Eh/α   predicted    -0.5135801E-04 ( -26.81%)
   displ. norm   :     0.0154375 α      lambda       -0.2013939E-04
   maximum displ.:     0.0067957 α      in ANC's #20, #27, #9, ...

........................................................................
.............................. CYCLE    6 ..............................
........................................................................

 iter      E             dE          RMSdq      gap      omega  full diag
   1    -55.6192306 -0.556192E+02  0.413E-03   12.08       0.0  T
   2    -55.6192307 -0.868682E-07  0.230E-03   12.08       6.0  T
   3    -55.6192307 -0.137968E-08  0.658E-04   12.08      20.9  T
   4    -55.6192307 -0.393506E-09  0.776E-05   12.08     176.9  T
     SCC iter.                  ...        0 min,  0.006 sec
     gradient                   ...        0 min,  0.007 sec
 * total energy  :   -54.8006582 Eh     change       -0.1596185E-04 Eh
   gradient norm :     0.0021929 Eh/α   predicted    -0.1008030E-04 ( -36.85%)
   displ. norm   :     0.0361355 α      lambda       -0.2083823E-04
   maximum displ.:     0.0179194 α      in ANC's #20, #9, #27, ...

........................................................................
.............................. CYCLE    7 ..............................
........................................................................

 iter      E             dE          RMSdq      gap      omega  full diag
   1    -55.6179947 -0.556180E+02  0.604E-03   12.09       0.0  T
   2    -55.6179949 -0.149437E-06  0.347E-03   12.09       4.0  T
   3    -55.6179949 -0.313626E-08  0.858E-04   12.09      16.0  T
   4    -55.6179949 -0.108626E-08  0.127E-04   12.09     108.4  T
     SCC iter.                  ...        0 min,  0.006 sec
     gradient                   ...        0 min,  0.007 sec
 * total energy  :   -54.8006702 Eh     change       -0.1204586E-04 Eh
   gradient norm :     0.0008843 Eh/α   predicted    -0.1043518E-04 ( -13.37%)
   displ. norm   :     0.0284594 α      lambda       -0.3630558E-05
   maximum displ.:     0.0143064 α      in ANC's #20, #4, #9, ...

........................................................................
.............................. CYCLE    8 ..............................
........................................................................

 iter      E             dE          RMSdq      gap      omega  full diag
   1    -55.6179144 -0.556179E+02  0.331E-03   12.09       0.0  T
   2    -55.6179144 -0.361425E-08  0.197E-03   12.09       7.0  T
   3    -55.6179144 -0.690157E-09  0.114E-04   12.09     120.3  T
   4    -55.6179144 -0.158650E-09  0.561E-05   12.09     244.9  T
     SCC iter.                  ...        0 min,  0.006 sec
     gradient                   ...        0 min,  0.007 sec
 * total energy  :   -54.8006744 Eh     change       -0.4198429E-05 Eh
   gradient norm :     0.0011818 Eh/α   predicted    -0.1816502E-05 ( -56.73%)
   displ. norm   :     0.0563447 α      lambda       -0.6779419E-05
   maximum displ.:     0.0300613 α      in ANC's #4, #20, #10, ...

........................................................................
.............................. CYCLE    9 ..............................
........................................................................

 iter      E             dE          RMSdq      gap      omega  full diag
   1    -55.6183281 -0.556183E+02  0.645E-03   12.09       0.0  T
   2    -55.6183282 -0.245728E-07  0.382E-03   12.09       3.6  T
   3    -55.6183282 -0.192050E-08  0.226E-04   12.09      60.9  T
   4    -55.6183282 -0.247915E-09  0.825E-05   12.09     166.4  T
     SCC iter.                  ...        0 min,  0.006 sec
     gradient                   ...        0 min,  0.007 sec
 * total energy  :   -54.8006812 Eh     change       -0.6736033E-05 Eh
   gradient norm :     0.0004807 Eh/α   predicted    -0.3397714E-05 ( -49.56%)
   displ. norm   :     0.0448199 α      lambda       -0.3336175E-05
   maximum displ.:     0.0278803 α      in ANC's #4, #10, #20, ...

........................................................................
.............................. CYCLE   10 ..............................
........................................................................

 iter      E             dE          RMSdq      gap      omega  full diag
   1    -55.6184280 -0.556184E+02  0.472E-03   12.08       0.0  T
   2    -55.6184280 -0.568082E-08  0.280E-03   12.08       4.9  T
   3    -55.6184280 -0.783260E-09  0.115E-04   12.08     119.4  T
   4    -55.6184280 -0.972165E-10  0.551E-05   12.08     249.4  T
     SCC iter.                  ...        0 min,  0.006 sec
     gradient                   ...        0 min,  0.007 sec
 * total energy  :   -54.8006851 Eh     change       -0.3912266E-05 Eh
   gradient norm :     0.0004202 Eh/α   predicted    -0.1669715E-05 ( -57.32%)
   displ. norm   :     0.0805696 α      lambda       -0.5486213E-05
   maximum displ.:     0.0522929 α      in ANC's #4, #10, #1, ...

   *** GEOMETRY OPTIMIZATION CONVERGED AFTER 10 ITERATIONS ***

------------------------------------------------------------------------
 total energy gain   :        -0.0036654 Eh       -2.3001 kcal/mol
 total RMSD          :         0.0778125 a0        0.0412 Å
 total power (kW/mol):        -0.9623560 (step)  -52.0001 (real)
------------------------------------------------------------------------

 ANCopt (total)                0 d,  0 h,  0 min,  0.185 sec
 optimizer setup                ...        0 min,  0.001 sec (  0.529%)
 model hessian                  ...        0 min,  0.018 sec (  9.968%)
 ANC generation                 ...        0 min,  0.002 sec (  1.189%)
 coordinate transformation      ...        0 min,  0.000 sec (  0.156%)
 single point calculation       ...        0 min,  0.159 sec ( 86.087%)
 optimization log               ...        0 min,  0.002 sec (  0.888%)
 hessian update                 ...        0 min,  0.000 sec (  0.137%)
 rational function              ...        0 min,  0.001 sec (  0.455%)

================
 final structure:
================
53
 xtb: 6.6.1 (8d0f1dd)
C           -1.16875942399615       -9.35987126320956       -0.40971351592096
C           -1.96655663095845       -8.08044880955316       -0.18951828389814
C           -1.08416413065783       -6.83778478467771       -0.28081272280481
C           -1.87790864475918       -5.54981939025745       -0.07629147048627
C           -0.98769183586303       -4.31123234806715       -0.14190307814713
C           -1.78187202957307       -3.02035227157603        0.04189438021495
C           -0.88540363929345       -1.78544622295461        0.00004036718877
C           -1.67878490707862       -0.49127661620782        0.16288396975334
C           -0.77613660547838        0.73926738747905        0.12679954928795
C           -1.57037829117869        2.03647582904058        0.26323088306784
C           -0.68060600227694        3.27641721462986        0.35240194979700
C            0.07542784659215        3.56461546484866       -0.94360323823395
C            0.81258794046085        4.90371333808111       -0.92165821890574
C            1.96778609717928        4.93537937465994        0.07690802835734
C            2.76423648630525        6.23456670343547       -0.01168689970671
C            3.90238786623829        6.28029715560416        1.00510023305255
C            4.69092025174324        7.58100336707134        0.91674984969671
H           -0.70832153120069       -9.35715049666955       -1.39544096634249
H           -0.38044884569858       -9.45048345026354        0.33463074649303
H           -1.81368129625771      -10.23243055280403       -0.33460606784984
H           -2.44124845793290       -8.11348842509709        0.79387198428400
H           -2.76045460085315       -8.01467272199706       -0.93712386466734
H           -0.60015380255557       -6.81129215543839       -1.26008228360199
H           -0.29668434721770       -6.89994677310444        0.47417883063623
H           -2.37734302505882       -5.58370341548455        0.89499348226539
H           -2.65352469021178       -5.47820906151051       -0.84261928933449
H           -0.22162636012175       -4.37672807510957        0.63447324051251
H           -0.47634757310468       -4.28508780178672       -1.10717628407428
H           -2.53611912233381       -2.94542982809188       -0.74504577626280
H           -2.30722887193946       -3.05238573494244        0.99937423462721
H           -0.14001476814507       -1.85394509823651        0.79605067194462
H           -0.34896782862497       -1.76165583751722       -0.95162204268255
H           -2.41937309154922       -0.41881015419227       -0.63720178702411
H           -2.22042676792881       -0.51631885722328        1.11154776767974
H           -0.22333861045700        0.74399692700333       -0.81397900400123
H           -0.04892173732195        0.67646604654661        0.93996002997201
H           -2.18271389287339        1.97892134867466        1.16686717572789
H           -2.24871808338468        2.13684861759191       -0.58744159882535
H           -1.30532743464740        4.14073649275869        0.59186554467039
H            0.02849769942562        3.14152921685671        1.17080820096346
H            0.79764706154634        2.76900940187767       -1.13400815468642
H           -0.63908770864251        3.57083868588261       -1.77073024912067
H            0.10629749013565        5.70260940986728       -0.68332835384302
H            1.20798825593631        5.10194442402496       -1.92127134927923
H            1.57979663061094        4.82741440725421        1.09112408785261
H            2.63319266396071        4.09044120851153       -0.11667999084285
H            3.17618446674415        6.33969636156278       -1.01832647750335
H            2.09416001366335        7.08043715470699        0.16015007735256
H            4.57401091556818        5.43608350529754        0.83246320217514
H            3.49049393880984        6.17379720454298        2.01139848985706
H            4.04124928070955        8.43355250827072        1.10307675967405
H            5.49357754205189        7.59415328669063        1.65057769598801
H            5.12832214149380        7.69525810320039       -0.07280746504671
           -------------------------------------------------
          |                Final Singlepoint                |
           -------------------------------------------------

          ...................................................
          :                      SETUP                      :
          :.................................................:
          :  # basis functions                 104          :
          :  # atomic orbitals                 104          :
          :  # shells                           70          :
          :  # electrons                       104          :
          :  max. iterations                   250          :
          :  Hamiltonian                  GFN2-xTB          :
          :  restarted?                      false          :
          :  GBSA solvation                  false          :
          :  PC potential                    false          :
          :  electronic temp.          300.0000000     K    :
          :  accuracy                    1.0000000          :
          :  -> integral cutoff          0.2500000E+02      :
          :  -> integral neglect         0.1000000E-07      :
          :  -> SCF convergence          0.1000000E-05 Eh   :
          :  -> wf. convergence          0.1000000E-03 e    :
          :  Broyden damping             0.4000000          :
          ...................................................

 iter      E             dE          RMSdq      gap      omega  full diag
   1    -55.6184280 -0.556184E+02  0.231E-05   12.08       0.0  T
   2    -55.6184280 -0.154898E-11  0.133E-05   12.08    1032.9  T
   3    -55.6184280  0.639488E-13  0.397E-06   12.08    3461.9  T

   *** convergence criteria satisfied after 3 iterations ***

         #    Occupation            Energy/Eh            Energy/eV
      -------------------------------------------------------------
         1        2.0000           -0.6233612             -16.9625
       ...           ...                  ...                  ...
        46        2.0000           -0.4208720             -11.4525
        47        2.0000           -0.4187686             -11.3953
        48        2.0000           -0.4172050             -11.3527
        49        2.0000           -0.4164332             -11.3317
        50        2.0000           -0.4124147             -11.2224
        51        2.0000           -0.4109473             -11.1824
        52        2.0000           -0.4082696             -11.1096 (HOMO)
        53                          0.0357098               0.9717 (LUMO)
        54                          0.0571398               1.5549
        55                          0.0768369               2.0908
        56                          0.0881918               2.3998
        57                          0.1033833               2.8132
       ...                                ...                  ...
       104                          0.3268741               8.8947
      -------------------------------------------------------------
                  HL-Gap            0.4439794 Eh           12.0813 eV
             Fermi-level           -0.1862799 Eh           -5.0689 eV

 SCC (total)                   0 d,  0 h,  0 min,  0.015 sec
 SCC setup                      ...        0 min,  0.000 sec (  2.032%)
 Dispersion                     ...        0 min,  0.000 sec (  1.421%)
 classical contributions        ...        0 min,  0.000 sec (  0.370%)
 integral evaluation            ...        0 min,  0.002 sec ( 11.652%)
 iterations                     ...        0 min,  0.005 sec ( 32.043%)
 molecular gradient             ...        0 min,  0.007 sec ( 50.069%)
 printout                       ...        0 min,  0.000 sec (  2.197%)

         :::::::::::::::::::::::::::::::::::::::::::::::::::::
         ::                     SUMMARY                     ::
         :::::::::::::::::::::::::::::::::::::::::::::::::::::
         :: total energy             -54.800685083903 Eh    ::
         :: gradient norm              0.000420175677 Eh/a0 ::
         :: HOMO-LUMO gap             12.081294225007 eV    ::
         ::.................................................::
         :: SCC energy               -55.618427956880 Eh    ::
         :: -> isotropic ES            0.008988011573 Eh    ::
         :: -> anisotropic ES          0.017174023777 Eh    ::
         :: -> anisotropic XC          0.032866359078 Eh    ::
         :: -> dispersion             -0.035655291271 Eh    ::
         :: repulsion energy           0.818107246837 Eh    ::
         :: add. restraining           0.000000000000 Eh    ::
         :: total charge              -0.000000000000 e     ::
         :::::::::::::::::::::::::::::::::::::::::::::::::::::

           ------------------------------------------------- 
          |                Numerical Hessian                |
           ------------------------------------------------- 
step length          :   0.00500
SCC accuracy         :   0.30000
Hessian scale factor :   1.00000
frozen atoms in %    :   0.00000    0
RMS gradient         :   0.00042
estimated CPU  time      0.70 min
estimated wall time      0.18 min

writing file <hessian>.

 projected vibrational frequencies (cm⁻¹)
eigval :       -0.00    -0.00    -0.00    -0.00     0.00     0.00
eigval :        9.52    17.99    24.14    33.54    39.70    56.56
eigval :       62.00    74.81    80.71   105.07   109.34   119.30
eigval :      120.29   128.32   146.08   149.94   157.73   193.37
eigval :      215.58   233.70   233.95   259.13   271.17   318.44
eigval :      340.24   378.86   408.28   442.23   488.12   496.18
eigval :      557.60   766.93   768.56   769.94   774.86   785.11
eigval :      794.67   803.72   828.84   862.09   871.84   916.41
eigval :      931.37   940.88   942.67   953.40   983.47   991.26
eigval :     1020.10  1029.73  1038.51  1052.38  1060.20  1079.48
eigval :     1081.35  1094.29  1101.50  1103.25  1110.11  1112.32
eigval :     1114.10  1120.38  1131.51  1137.75  1146.27  1155.30
eigval :     1199.63  1204.54  1218.32  1221.38  1231.89  1248.34
eigval :     1254.61  1258.28  1265.33  1270.77  1274.47  1282.45
eigval :     1284.83  1285.81  1286.86  1293.04  1295.47  1296.82
eigval :     1298.81  1317.05  1321.23  1325.61  1346.42  1365.41
eigval :     1367.83  1375.88  1376.98  1378.22  1379.32  1381.51
eigval :     1416.25  1416.29  1489.42  1489.91  1494.49  1495.00
eigval :     1495.87  1495.93  1497.50  1498.12  1498.59  1500.18
eigval :     1500.84  1501.72  1502.30  1502.79  1504.88  1504.90
eigval :     1505.51  1508.00  1508.08  2953.31  2954.03  2954.76
eigval :     2955.51  2956.48  2956.85  2959.26  2960.19  2963.89
eigval :     2964.62  2965.35  2969.70  2972.22  2972.81  2972.96
eigval :     2973.79  2974.39  2974.53  2976.26  2976.98  2978.36
eigval :     2979.53  2980.85  2981.68  2983.88  2986.63  2988.30
eigval :     2990.85  2995.77  2996.67  3029.77  3030.06  3032.02
eigval :     3032.05  3037.53  3037.58
           -------------------------------------------------
          |                Property Printout                |
           -------------------------------------------------

    * Orbital Energies and Occupations

         #    Occupation            Energy/Eh            Energy/eV
      -------------------------------------------------------------
         1        2.0000           -0.6233612             -16.9625
       ...           ...                  ...                  ...
        40        2.0000           -0.4348258             -11.8322
        41        2.0000           -0.4311322             -11.7317
        42        2.0000           -0.4287304             -11.6663
        43        2.0000           -0.4279892             -11.6462
        44        2.0000           -0.4264581             -11.6045
        45        2.0000           -0.4223333             -11.4923
        46        2.0000           -0.4208720             -11.4525
        47        2.0000           -0.4187686             -11.3953
        48        2.0000           -0.4172051             -11.3527
        49        2.0000           -0.4164332             -11.3317
        50        2.0000           -0.4124147             -11.2224
        51        2.0000           -0.4109473             -11.1824
        52        2.0000           -0.4082696             -11.1096 (HOMO)
        53                          0.0357098               0.9717 (LUMO)
        54                          0.0571398               1.5549
        55                          0.0768369               2.0908
        56                          0.0881918               2.3998
        57                          0.1033833               2.8132
        58                          0.1110655               3.0222
        59                          0.1131256               3.0783
        60                          0.1147292               3.1219
        61                          0.1176806               3.2023
        62                          0.1226094               3.3364
        63                          0.1265452               3.4435
       ...                                ...                  ...
       104                          0.3268741               8.8947
      -------------------------------------------------------------
                  HL-Gap            0.4439794 Eh           12.0813 eV
             Fermi-level           -0.1862799 Eh           -5.0689 eV

     #   Z          covCN         q      C6AA      α(0)
     1   6 C        3.752    -0.102    22.510     6.766
     2   6 C        3.801    -0.053    21.524     6.605
     3   6 C        3.803    -0.059    21.634     6.622
     4   6 C        3.803    -0.058    21.623     6.620
     5   6 C        3.803    -0.058    21.618     6.620
     6   6 C        3.803    -0.058    21.620     6.620
     7   6 C        3.803    -0.058    21.619     6.620
     8   6 C        3.803    -0.058    21.623     6.620
     9   6 C        3.803    -0.059    21.632     6.622
    10   6 C        3.802    -0.058    21.621     6.620
    11   6 C        3.802    -0.059    21.628     6.621
    12   6 C        3.802    -0.059    21.628     6.621
    13   6 C        3.802    -0.058    21.618     6.620
    14   6 C        3.802    -0.059    21.633     6.622
    15   6 C        3.803    -0.059    21.635     6.622
    16   6 C        3.801    -0.053    21.521     6.605
    17   6 C        3.752    -0.102    22.509     6.766
    18   1 H        0.925     0.033     2.542     2.493
    19   1 H        0.925     0.033     2.541     2.493
    20   1 H        0.925     0.033     2.550     2.497
    21   1 H        0.924     0.028     2.609     2.526
    22   1 H        0.924     0.029     2.608     2.525
    23   1 H        0.924     0.030     2.590     2.517
    24   1 H        0.924     0.030     2.591     2.517
    25   1 H        0.924     0.029     2.607     2.525
    26   1 H        0.924     0.029     2.607     2.525
    27   1 H        0.924     0.029     2.600     2.522
    28   1 H        0.924     0.029     2.601     2.522
    29   1 H        0.924     0.029     2.602     2.522
    30   1 H        0.924     0.029     2.602     2.522
    31   1 H        0.924     0.029     2.601     2.522
    32   1 H        0.924     0.029     2.603     2.523
    33   1 H        0.924     0.028     2.608     2.526
    34   1 H        0.924     0.028     2.612     2.528
    35   1 H        0.924     0.031     2.569     2.507
    36   1 H        0.924     0.029     2.595     2.519
    37   1 H        0.924     0.028     2.613     2.528
    38   1 H        0.924     0.029     2.607     2.525
    39   1 H        0.924     0.029     2.599     2.521
    40   1 H        0.924     0.032     2.563     2.504
    41   1 H        0.924     0.032     2.564     2.504
    42   1 H        0.924     0.029     2.599     2.521
    43   1 H        0.924     0.028     2.609     2.526
    44   1 H        0.924     0.028     2.614     2.528
    45   1 H        0.924     0.031     2.578     2.511
    46   1 H        0.924     0.029     2.602     2.523
    47   1 H        0.924     0.029     2.604     2.524
    48   1 H        0.924     0.029     2.599     2.521
    49   1 H        0.924     0.028     2.610     2.527
    50   1 H        0.924     0.028     2.612     2.528
    51   1 H        0.925     0.033     2.543     2.494
    52   1 H        0.925     0.032     2.553     2.499
    53   1 H        0.925     0.033     2.544     2.494

 Mol. C6AA /au·bohr⁶  :      18754.924384
 Mol. C8AA /au·bohr⁸  :     392655.667098
 Mol. α(0) /au        :        203.418208


Wiberg/Mayer (AO) data.
largest (>0.10) Wiberg bond orders for each atom

 ---------------------------------------------------------------------------
     #   Z sym  total        # sym  WBO       # sym  WBO       # sym  WBO
 ---------------------------------------------------------------------------
     1   6 C    3.997 --     2 C    1.019    18 H    0.988    19 H    0.988
                            20 H    0.988
     2   6 C    3.998 --     1 C    1.019     3 C    1.008    21 H    0.979
                            22 H    0.979
     3   6 C    3.997 --     2 C    1.008     4 C    1.007    23 H    0.978
                            24 H    0.978
     4   6 C    3.997 --     3 C    1.007     5 C    1.007    26 H    0.978
                            25 H    0.978
     5   6 C    3.997 --     4 C    1.007     6 C    1.007    28 H    0.978
                            27 H    0.978
     6   6 C    3.997 --     7 C    1.007     5 C    1.007    30 H    0.978
                            29 H    0.978
     7   6 C    3.997 --     6 C    1.007     8 C    1.007    31 H    0.978
                            32 H    0.977
     8   6 C    3.997 --     7 C    1.007     9 C    1.007    33 H    0.978
                            34 H    0.977
     9   6 C    3.997 --    10 C    1.008     8 C    1.007    36 H    0.977
                            35 H    0.976
    10   6 C    3.997 --     9 C    1.008    11 C    1.006    38 H    0.977
                            37 H    0.977
    11   6 C    3.997 --    12 C    1.009    10 C    1.006    39 H    0.977
                            40 H    0.976
    12   6 C    3.997 --    11 C    1.009    13 C    1.006    42 H    0.977
                            41 H    0.976
    13   6 C    3.997 --    14 C    1.008    12 C    1.006    43 H    0.977
                            44 H    0.977
    14   6 C    3.998 --    13 C    1.008    15 C    1.007    46 H    0.977
                            45 H    0.976
    15   6 C    3.997 --    16 C    1.008    14 C    1.007    48 H    0.978
                            47 H    0.977
    16   6 C    3.998 --    17 C    1.019    15 C    1.008    49 H    0.979
                            50 H    0.979
    17   6 C    3.997 --    16 C    1.019    53 H    0.988    51 H    0.988
                            52 H    0.988
    18   1 H    0.999 --     1 C    0.988
    19   1 H    0.999 --     1 C    0.988
    20   1 H    0.999 --     1 C    0.988
    21   1 H    0.999 --     2 C    0.979
    22   1 H    0.999 --     2 C    0.979
    23   1 H    0.999 --     3 C    0.978
    24   1 H    0.999 --     3 C    0.978
    25   1 H    0.999 --     4 C    0.978
    26   1 H    0.999 --     4 C    0.978
    27   1 H    0.999 --     5 C    0.978
    28   1 H    0.999 --     5 C    0.978
    29   1 H    0.999 --     6 C    0.978
    30   1 H    0.999 --     6 C    0.978
    31   1 H    0.999 --     7 C    0.978
    32   1 H    0.999 --     7 C    0.977
    33   1 H    0.999 --     8 C    0.978
    34   1 H    0.999 --     8 C    0.977
    35   1 H    0.999 --     9 C    0.976
    36   1 H    0.999 --     9 C    0.977
    37   1 H    0.999 --    10 C    0.977
    38   1 H    0.999 --    10 C    0.977
    39   1 H    0.999 --    11 C    0.977
    40   1 H    0.999 --    11 C    0.976
    41   1 H    0.999 --    12 C    0.976
    42   1 H    0.999 --    12 C    0.977
    43   1 H    0.999 --    13 C    0.977
    44   1 H    0.999 --    13 C    0.977
    45   1 H    0.999 --    14 C    0.976
    46   1 H    0.999 --    14 C    0.977
    47   1 H    0.999 --    15 C    0.977
    48   1 H    0.999 --    15 C    0.978
    49   1 H    0.999 --    16 C    0.979
    50   1 H    0.999 --    16 C    0.979
    51   1 H    0.999 --    17 C    0.988
    52   1 H    0.999 --    17 C    0.988
    53   1 H    0.999 --    17 C    0.988
 ---------------------------------------------------------------------------

Topologies differ in total number of bonds
Writing topology from bond orders to xtbtopo.mol

molecular dipole:
                 x           y           z       tot (Debye)
 q only:        0.014      -0.001      -0.001
   full:        0.011       0.000      -0.001       0.029
molecular quadrupole (traceless):
                xx          xy          yy          xz          yz          zz
 q only:       -0.169       0.095       0.779       0.030       0.126      -0.611
  q+dip:       -0.134      -1.574      -3.294      -0.118      -0.097       3.428
   full:       -0.172      -0.720      -1.317      -0.046       0.005       1.488

           -------------------------------------------------
          |                Geometry Summary                 |
           -------------------------------------------------

      molecular mass/u    :      240.4683773
   center of mass at/Å    :        0.0003475      -0.0005937       0.0003363
  moments of inertia/u·Å² :        0.4794907E+03   0.7562046E+04   0.7893053E+04
rotational constants/cm⁻¹ :        0.3515737E-01   0.2229242E-02   0.2135755E-02

 * 52 selected distances

     #   Z          #   Z                                           value/Å
     1   6 C        2   6 C                                       1.5237744
     2   6 C        3   6 C                                       1.5268155
     3   6 C        4   6 C                                       1.5266678
     4   6 C        5   6 C                                       1.5267250
     5   6 C        6   6 C                                       1.5267205
     6   6 C        7   6 C                                       1.5265650
     7   6 C        8   6 C                                       1.5267113
     8   6 C        9   6 C                                       1.5265369
     9   6 C       10   6 C                                       1.5271488
    10   6 C       11   6 C                                       1.5287581 (max)
    11   6 C       12   6 C                                       1.5278335
    12   6 C       13   6 C                                       1.5287479
    13   6 C       14   6 C                                       1.5272919
    14   6 C       15   6 C                                       1.5264568
    15   6 C       16   6 C                                       1.5268714
    16   6 C       17   6 C                                       1.5236227
     1   6 C       18   1 H                                       1.0879657
     1   6 C       19   1 H                                       1.0879764
     1   6 C       20   1 H                                       1.0876237 (min)
     2   6 C       21   1 H                                       1.0924654
     2   6 C       22   1 H                                       1.0924810
     3   6 C       23   1 H                                       1.0926742
     3   6 C       24   1 H                                       1.0927035
     4   6 C       25   1 H                                       1.0926928
     4   6 C       26   1 H                                       1.0926879
     5   6 C       27   1 H                                       1.0926602
     5   6 C       28   1 H                                       1.0926615
     6   6 C       29   1 H                                       1.0926011
     6   6 C       30   1 H                                       1.0926087
     7   6 C       31   1 H                                       1.0926707
     7   6 C       32   1 H                                       1.0926989
     8   6 C       33   1 H                                       1.0926389
     8   6 C       34   1 H                                       1.0926876
     9   6 C       35   1 H                                       1.0911794
     9   6 C       36   1 H                                       1.0927102
    10   6 C       37   1 H                                       1.0930810
    10   6 C       38   1 H                                       1.0926406
    11   6 C       39   1 H                                       1.0930086
    11   6 C       40   1 H                                       1.0912433
    12   6 C       41   1 H                                       1.0912579
    12   6 C       42   1 H                                       1.0930281
    13   6 C       43   1 H                                       1.0926493
    13   6 C       44   1 H                                       1.0930982
    14   6 C       45   1 H                                       1.0912501
    14   6 C       46   1 H                                       1.0927776
    15   6 C       47   1 H                                       1.0927382
    15   6 C       48   1 H                                       1.0927156
    16   6 C       49   1 H                                       1.0925099
    16   6 C       50   1 H                                       1.0925362
    17   6 C       51   1 H                                       1.0879478
    17   6 C       52   1 H                                       1.0876282
    17   6 C       53   1 H                                       1.0879331

 * 2 distinct bonds (by element types)

   Z      Z             #   av. dist./Å        max./Å        min./Å
   1 H    6 C          36     1.0917342     1.0930982     1.0876237
   6 C    6 C          16     1.5267030     1.5287581     1.5236227

           -------------------------------------------------
          |               Frequency Printout                |
           -------------------------------------------------
 projected vibrational frequencies (cm⁻¹)
eigval :       -0.00    -0.00    -0.00    -0.00     0.00     0.00
eigval :        9.52    17.99    24.14    33.54    39.70    56.56
eigval :       62.00    74.81    80.71   105.07   109.34   119.30
eigval :      120.29   128.32   146.08   149.94   157.73   193.37
eigval :      215.58   233.70   233.95   259.13   271.17   318.44
eigval :      340.24   378.86   408.28   442.23   488.12   496.18
eigval :      557.60   766.93   768.56   769.94   774.86   785.11
eigval :      794.67   803.72   828.84   862.09   871.84   916.41
eigval :      931.37   940.88   942.67   953.40   983.47   991.26
eigval :     1020.10  1029.73  1038.51  1052.38  1060.20  1079.48
eigval :     1081.35  1094.29  1101.50  1103.25  1110.11  1112.32
eigval :     1114.10  1120.38  1131.51  1137.75  1146.27  1155.30
eigval :     1199.63  1204.54  1218.32  1221.38  1231.89  1248.34
eigval :     1254.61  1258.28  1265.33  1270.77  1274.47  1282.45
eigval :     1284.83  1285.81  1286.86  1293.04  1295.47  1296.82
eigval :     1298.81  1317.05  1321.23  1325.61  1346.42  1365.41
eigval :     1367.83  1375.88  1376.98  1378.22  1379.32  1381.51
eigval :     1416.25  1416.29  1489.42  1489.91  1494.49  1495.00
eigval :     1495.87  1495.93  1497.50  1498.12  1498.59  1500.18
eigval :     1500.84  1501.72  1502.30  1502.79  1504.88  1504.90
eigval :     1505.51  1508.00  1508.08  2953.31  2954.03  2954.76
eigval :     2955.51  2956.48  2956.85  2959.26  2960.19  2963.89
eigval :     2964.62  2965.35  2969.70  2972.22  2972.81  2972.96
eigval :     2973.79  2974.39  2974.53  2976.26  2976.98  2978.36
eigval :     2979.53  2980.85  2981.68  2983.88  2986.63  2988.30
eigval :     2990.85  2995.77  2996.67  3029.77  3030.06  3032.02
eigval :     3032.05  3037.53  3037.58
 reduced masses (amu)
   1: 10.17   2:  9.82   3: 10.32   4: 10.16   5: 10.34   6:  9.59   7:  9.78   8:  7.20
   9:  7.24  10:  8.47  11:  7.81  12:  9.46  13:  6.09  14:  7.43  15:  9.25  16:  8.05
  17:  6.41  18:  7.79  19:  6.96  20:  9.20  21:  7.09  22:  7.18  23:  8.06  24:  8.81
  25:  8.77  26:  2.24  27:  2.17  28:  8.69  29:  7.33  30:  8.91  31:  8.99  32:  9.74
  33:  9.12  34:  9.09  35:  9.17  36:  9.06  37:  8.27  38:  2.15  39:  1.60  40:  1.72
  41:  2.06  42:  2.60  43:  2.35  44:  2.75  45:  2.97  46:  3.66  47:  3.48  48:  4.30
  49:  5.25  50:  6.04  51:  6.04  52:  4.62  53:  3.91  54:  4.10  55:  3.98  56:  4.02
  57:  9.70  58:  6.52  59:  9.49  60:  9.25  61:  9.03  62:  9.57  63:  7.38  64:  7.21
  65:  8.13  66:  8.39  67:  8.14  68:  7.12  69:  7.23  70:  8.01  71:  7.85  72:  7.73
  73:  6.55  74:  5.85  75:  5.36  76:  3.84  77:  4.43  78:  4.03  79:  3.67  80:  3.49
  81:  3.41  82:  1.24  83:  2.88  84:  2.72  85:  1.73  86:  2.25  87:  2.77  88:  2.37
  89:  2.87  90:  2.12  91:  2.29  92:  3.34  93:  3.73  94:  3.53  95:  4.13  96:  4.68
  97:  4.68  98:  5.03  99:  5.37 100:  5.75 101:  5.60 102:  5.53 103:  3.19 104:  3.18
 105:  1.87 106:  1.95 107:  1.89 108:  1.94 109:  1.91 110:  1.94 111:  1.91 112:  1.86
 113:  1.99 114:  2.01 115:  2.03 116:  1.84 117:  2.02 118:  1.81 119:  1.53 120:  1.53
 121:  1.74 122:  1.66 123:  1.65 124:  1.88 125:  1.90 126:  1.89 127:  1.90 128:  1.93
 129:  1.95 130:  1.88 131:  1.98 132:  1.77 133:  1.98 134:  1.91 135:  1.91 136:  1.49
 137:  1.54 138:  1.56 139:  1.62 140:  1.72 141:  1.61 142:  1.50 143:  1.55 144:  1.51
 145:  1.66 146:  1.83 147:  1.60 148:  1.65 149:  1.76 150:  1.56 151:  1.56 152:  1.66
 153:  1.63 154:  1.96 155:  1.96 156:  1.93 157:  1.93 158:  1.26 159:  1.26
 IR intensities (km·mol⁻¹)
   1:  0.00   2:  0.00   3:  0.00   4:  0.00   5:  0.00   6:  0.00   7:  0.00   8:  0.00
   9:  0.00  10:  0.01  11:  0.00  12:  0.01  13:  0.00  14:  0.01  15:  0.01  16:  0.01
  17:  0.00  18:  0.01  19:  0.00  20:  0.01  21:  0.01  22:  0.01  23:  0.08  24:  0.00
  25:  0.08  26:  0.00  27:  0.00  28:  0.04  29:  0.33  30:  0.27  31:  0.05  32:  0.01
  33:  0.12  34:  0.47  35:  0.19  36:  0.07  37:  0.08  38:  6.11  39: 18.49  40:  6.33
  41:  5.63  42:  0.22  43:  0.61  44:  2.98  45:  1.44  46:  2.37  47:  0.87  48:  0.85
  49:  0.77  50:  3.38  51:  4.83  52:  0.12  53:  0.24  54:  0.14  55:  0.15  56:  0.21
  57:  0.35  58:  0.54  59:  0.57  60:  0.52  61:  1.10  62:  0.42  63:  1.09  64:  0.02
  65:  0.13  66:  0.01  67:  0.37  68:  2.35  69:  4.68  70:  0.39  71:  0.22  72:  0.42
  73:  0.17  74:  0.12  75:  0.18  76:  0.92  77:  0.10  78:  0.15  79:  0.40  80:  0.29
  81:  0.08  82:  0.03  83:  0.07  84:  0.04  85:  0.13  86:  0.28  87:  0.10  88:  0.04
  89:  0.44  90:  0.02  91:  0.00  92:  0.48  93:  0.11  94:  0.13  95:  0.91  96:  1.18
  97:  1.07  98:  0.79  99:  0.67 100:  0.00 101:  0.09 102:  0.05 103:  0.82 104:  0.91
 105:  0.04 106:  0.73 107:  0.01 108:  0.09 109:  0.11 110:  0.17 111:  0.12 112:  0.05
 113:  0.05 114:  0.15 115:  0.10 116:  0.07 117:  0.30 118:  0.16 119:  2.27 120:  2.30
 121:  0.04 122:  1.19 123:  1.20 124:  0.04 125:  0.67 126: 11.04 127:  4.33 128:  2.85
 129:  0.19 130: 18.56 131:  1.91 132: 13.45 133:  0.25 134:  0.20 135: 13.51 136:  1.20
 137: 12.29 138: 18.30 139:  2.08 140: 27.39 141: 22.29 142:  0.86 143:  2.28 144: 10.43
 145: 74.16 146:160.31 147: 71.73 148:100.12 149: 52.63 150: 51.04 151:169.73 152:233.82
 153:230.70 154: 61.46 155: 62.76 156: 57.84 157: 67.37 158: 47.67 159: 18.83
 Raman intensities (amu)
   1:  0.00   2:  0.00   3:  0.00   4:  0.00   5:  0.00   6:  0.00   7:  0.00   8:  0.00
   9:  0.00  10:  0.00  11:  0.00  12:  0.00  13:  0.00  14:  0.00  15:  0.00  16:  0.00
  17:  0.00  18:  0.00  19:  0.00  20:  0.00  21:  0.00  22:  0.00  23:  0.00  24:  0.00
  25:  0.00  26:  0.00  27:  0.00  28:  0.00  29:  0.00  30:  0.00  31:  0.00  32:  0.00
  33:  0.00  34:  0.00  35:  0.00  36:  0.00  37:  0.00  38:  0.00  39:  0.00  40:  0.00
  41:  0.00  42:  0.00  43:  0.00  44:  0.00  45:  0.00  46:  0.00  47:  0.00  48:  0.00
  49:  0.00  50:  0.00  51:  0.00  52:  0.00  53:  0.00  54:  0.00  55:  0.00  56:  0.00
  57:  0.00  58:  0.00  59:  0.00  60:  0.00  61:  0.00  62:  0.00  63:  0.00  64:  0.00
  65:  0.00  66:  0.00  67:  0.00  68:  0.00  69:  0.00  70:  0.00  71:  0.00  72:  0.00
  73:  0.00  74:  0.00  75:  0.00  76:  0.00  77:  0.00  78:  0.00  79:  0.00  80:  0.00
  81:  0.00  82:  0.00  83:  0.00  84:  0.00  85:  0.00  86:  0.00  87:  0.00  88:  0.00
  89:  0.00  90:  0.00  91:  0.00  92:  0.00  93:  0.00  94:  0.00  95:  0.00  96:  0.00
  97:  0.00  98:  0.00  99:  0.00 100:  0.00 101:  0.00 102:  0.00 103:  0.00 104:  0.00
 105:  0.00 106:  0.00 107:  0.00 108:  0.00 109:  0.00 110:  0.00 111:  0.00 112:  0.00
 113:  0.00 114:  0.00 115:  0.00 116:  0.00 117:  0.00 118:  0.00 119:  0.00 120:  0.00
 121:  0.00 122:  0.00 123:  0.00 124:  0.00 125:  0.00 126:  0.00 127:  0.00 128:  0.00
 129:  0.00 130:  0.00 131:  0.00 132:  0.00 133:  0.00 134:  0.00 135:  0.00 136:  0.00
 137:  0.00 138:  0.00 139:  0.00 140:  0.00 141:  0.00 142:  0.00 143:  0.00 144:  0.00
 145:  0.00 146:  0.00 147:  0.00 148:  0.00 149:  0.00 150:  0.00 151:  0.00 152:  0.00
 153:  0.00 154:  0.00 155:  0.00 156:  0.00 157:  0.00 158:  0.00 159:  0.00
 output can be read by thermo (or use thermo option).
 writing <g98.out> molden fake output.
 recommended (thermochemical) frequency scaling factor: 1.0
           -------------------------------------------------
          |             Thermodynamic Functions             |
           -------------------------------------------------

Molecule has no symmetry elements
It seems to be the C1 point group
c1  symmetry found (for desy threshold:  0.10E+00) used in thermo

          ...................................................
          :                      SETUP                      :
          :.................................................:
          :  # frequencies                         153      :
          :  # imaginary freq.                       0      :
          :  linear?                             false      :
          :  only rotor calc.                    false      :
          :  symmetry                               c1      :
          :  rotational number                       1      :
          :  scaling factor                  1.0000000      :
          :  rotor cutoff                   50.0000000 cm⁻¹ :
          :  imag. cutoff                  -20.0000000 cm⁻¹ :
          :.................................................:

    mode    ω/cm⁻¹     T·S(HO)/kcal·mol⁻¹    T·S(FR)/kcal·mol⁻¹   T·S(vib)
   ------------------------------------------------------------------------
       1      9.52    -2.41762 (  0.13%)    -1.54780 ( 99.87%)    -1.54894
       2     17.99    -2.04057 (  1.65%)    -1.35926 ( 98.35%)    -1.37050
       3     24.14    -1.86666 (  5.15%)    -1.27224 ( 94.85%)    -1.30287
       4     33.54    -1.67206 ( 16.84%)    -1.17480 ( 83.16%)    -1.25854
       5     39.70    -1.57250 ( 28.43%)    -1.12489 ( 71.57%)    -1.25216
       6     56.56    -1.36362 ( 62.09%)    -1.01999 ( 37.91%)    -1.23335
       7     62.00    -1.30966 ( 70.27%)    -0.99283 ( 29.73%)    -1.21546
       8     74.81    -1.19934 ( 83.37%)    -0.93717 ( 16.63%)    -1.15573
       9     80.71    -1.15489 ( 87.16%)    -0.91469 ( 12.84%)    -1.12405
      10    105.07    -1.00119 ( 95.12%)    -0.83655 (  4.88%)    -0.99316
      11    109.34    -0.97809 ( 95.81%)    -0.82474 (  4.19%)    -0.97167
      12    119.30    -0.92776 ( 97.01%)    -0.79893 (  2.99%)    -0.92390
      13    120.29    -0.92300 ( 97.10%)    -0.79648 (  2.90%)    -0.91933
      14    128.32    -0.88583 ( 97.75%)    -0.77734 (  2.25%)    -0.88339
      15    146.08    -0.81175 ( 98.65%)    -0.73893 (  1.35%)    -0.81076
      16    149.94    -0.79695 ( 98.78%)    -0.73121 (  1.22%)    -0.79614
      17    157.73    -0.76827 ( 99.00%)    -0.71619 (  1.00%)    -0.76775
      18    193.37    -0.65452 ( 99.55%)    -0.65585 (  0.45%)    -0.65453
      19    215.58    -0.59507 ( 99.71%)    -0.62364 (  0.29%)    -0.59515
      20    233.70    -0.55168 ( 99.79%)    -0.59974 (  0.21%)    -0.55178
      21    233.95    -0.55111 ( 99.79%)    -0.59942 (  0.21%)    -0.55121
      22    259.13    -0.49720 ( 99.86%)    -0.56913 (  0.14%)    -0.49730
      23    271.17    -0.47368 ( 99.88%)    -0.55568 (  0.12%)    -0.47378
   ------------------------------------------------------------------------

   temp. (K)  partition function   enthalpy   heat capacity  entropy
                                   cal/mol     cal/K/mol   cal/K/mol   J/K/mol
 298.15  VIB  0.419E+12            12841.856     70.418     85.650
         ROT  0.129E+08              888.752      2.981     35.521
         INT  0.542E+19            13730.608     73.399    121.171
         TR   0.361E+28             1481.254      4.968     42.314
         TOT                       15211.8619    78.3674   163.4857   684.0240

       T/K    H(0)-H(T)+PV         H(T)/Eh          T*S/Eh         G(T)/Eh
   ------------------------------------------------------------------------
    298.15    0.242416E-01    0.521451E+00    0.776773E-01    0.443773E+00
   ------------------------------------------------------------------------

         :::::::::::::::::::::::::::::::::::::::::::::::::::::
         ::                  THERMODYNAMIC                  ::
         :::::::::::::::::::::::::::::::::::::::::::::::::::::
         :: total free energy         -54.356911807889 Eh   ::
         ::.................................................::
         :: total energy              -54.800685083903 Eh   ::
         :: zero point energy           0.497208940857 Eh   ::
         :: G(RRHO) w/o ZPVE           -0.053435664843 Eh   ::
         :: G(RRHO) contrib.            0.443773276014 Eh   ::
         :::::::::::::::::::::::::::::::::::::::::::::::::::::
 
 normal mode %tage of torsion character
   1:  0.00   2:  0.00   3:  0.00   4:  0.00   5:  0.00   6:  0.00   7:  0.34   8:  0.62
   9:  0.55  10:  0.38  11:  0.41  12:  0.27  13:  0.65  14:  0.58  15:  0.36  16:  0.52
  17:  0.69  18:  0.59  19:  0.65  20:  0.47  21:  0.71  22:  0.70  23:  0.58  24:  0.44
  25:  0.39  26:  0.88  27:  0.89  28:  0.39  29:  0.55  30:  0.22  31:  0.16  32:  0.06
  33:  0.11  34:  0.08  35:  0.06  36:  0.05  37:  0.08  38:  0.51  39:  0.58  40:  0.53
  41:  0.45  42:  0.45  43:  0.48  44:  0.43  45:  0.52  46:  0.53  47:  0.56  48:  0.54
  49:  0.38  50:  0.10  51:  0.17  52:  0.43  53:  0.45  54:  0.40  55:  0.38  56:  0.23
  57:  0.09  58:  0.18  59:  0.10  60:  0.07  61:  0.07  62:  0.04  63:  0.14  64:  0.03
  65:  0.03  66:  0.02  67:  0.06  68:  0.15  69:  0.10  70:  0.06  71:  0.16  72:  0.33
  73:  0.57  74:  0.53  75:  0.51  76:  0.26  77:  0.33  78:  0.34  79:  0.17  80:  0.20
  81:  0.30  82:  0.11  83:  0.23  84:  0.12  85:  0.12  86:  0.11  87:  0.19  88:  0.15
  89:  0.07  90:  0.07  91:  0.10  92:  0.08  93:  0.07  94:  0.09  95:  0.07  96:  0.07
  97:  0.06  98:  0.07  99:  0.06 100:  0.05 101:  0.06 102:  0.06 103:  0.00 104:  0.00
 105:  0.63 106:  0.63 107:  0.64 108:  0.64 109:  0.64 110:  0.64 111:  0.65 112:  0.62
 113:  0.63 114:  0.65 115:  0.62 116:  0.60 117:  0.61 118:  0.59 119:  0.92 120:  0.93
 121:  0.58 122:  0.81 123:  0.88 124:  0.36 125:  0.37 126:  0.31 127:  0.32 128:  0.31
 129:  0.31 130:  0.31 131:  0.29 132:  0.05 133:  0.17 134:  0.11 135:  0.05 136:  0.01
 137:  0.01 138:  0.01 139:  0.01 140:  0.01 141:  0.01 142:  0.01 143:  0.01 144:  0.01
 145:  0.01 146:  0.01 147:  0.01 148:  0.01 149:  0.02 150:  0.02 151:  0.01 152:  0.03
 153:  0.02 154:  0.08 155:  0.05 156:  0.03 157:  0.04 158:  0.00 159:  0.00
 recommended # of modes for mode following           4

optimized geometry written to: xtbopt.xyz


           -------------------------------------------------
          | TOTAL ENERGY              -54.800685083903 Eh   |
          | TOTAL ENTHALPY            -54.279234498036 Eh   |
          | TOTAL FREE ENERGY         -54.356911807889 Eh   |
          | GRADIENT NORM               0.000420168827 Eh/α |
          | HOMO-LUMO GAP              12.081294234356 eV   |
           -------------------------------------------------

------------------------------------------------------------------------
 * finished run on 2024/04/23 at 12:10:59.010     
------------------------------------------------------------------------
 total:
 * wall-time:     0 d,  0 h,  0 min,  3.143 sec
 *  cpu-time:     0 d,  0 h,  0 min, 12.213 sec
 * ratio c/w:     3.885 speedup
 SCF:
 * wall-time:     0 d,  0 h,  0 min,  0.042 sec
 *  cpu-time:     0 d,  0 h,  0 min,  0.146 sec
 * ratio c/w:     3.480 speedup
 ANC optimizer:
 * wall-time:     0 d,  0 h,  0 min,  0.206 sec
 *  cpu-time:     0 d,  0 h,  0 min,  0.789 sec
 * ratio c/w:     3.822 speedup
 analytical hessian:
 * wall-time:     0 d,  0 h,  0 min,  2.808 sec
 *  cpu-time:     0 d,  0 h,  0 min, 11.020 sec
 * ratio c/w:     3.925 speedup

