53
 energy: -54.800685083903 gnorm: 0.000420175677 xtb: 6.6.1 (8d0f1dd)
C           -1.16880986226103       -9.35986585853446       -0.40969310012071
C           -1.96659960154666       -8.08043884333198       -0.18949731627539
C           -1.08420091337600       -6.83777959800898       -0.28079700417013
C           -1.87793796978273       -5.54980969061859       -0.07627522908578
C           -0.98771490471348       -4.31122742412412       -0.14189210593121
C           -1.78188769780755       -3.02034286855117        0.04190587163056
C           -0.88541298769870       -1.78544158689435        0.00004657402204
C           -1.67878691078693       -0.49126754181994        0.16289068725636
C           -0.77613229205744        0.73927167261419        0.12680096824983
C           -1.57036670934598        2.03648451091082        0.26323281039934
C           -0.68058761688492        3.27642139327565        0.35239860713063
C            0.07544321704658        3.56461342297400       -0.94360972294726
C            0.81261039899536        4.90370747472571       -0.92166961396005
C            1.96781220715659        4.93536920550928        0.07689254562549
C            2.76426908953237        6.23455220943484       -0.01170743008386
C            3.90242425815263        6.28027847686588        1.00507564995517
C            4.69096314571402        7.58098040536845        0.91672024394213
H           -0.70837539607571       -9.35714922324260       -1.39542216251481
H           -0.38049716016439       -9.45048087405939        0.33464856871269
H           -1.81373604103912      -10.23242164022676       -0.33458187794489
H           -2.44128816881794       -8.11347425707300        0.79389466655133
H           -2.76049983666586       -8.01465990374106       -0.93710024061313
H           -0.60019386487297       -6.81129121217212       -1.26006830071297
H           -0.29671882000590       -6.89994439197423        0.47419190893530
H           -2.37736913705565       -5.58368940561859        0.89501152615213
H           -2.65355631526532       -5.47819663823697       -0.84260046550103
H           -0.22164706185010       -4.37672580725689        0.63448165296115
H           -0.47637387452083       -4.28508723993831       -1.10716714241005
H           -2.53613714520735       -2.94541784929491       -0.74503178278650
H           -2.30724136564621       -3.05237191005501        0.99938761578579
H           -0.14002169661652       -1.85394297573669        0.79605439642691
H           -0.34898037441200       -1.76165567117550       -0.95161774987832
H           -2.41937750864326       -0.41879859849328       -0.63719261085238
H           -2.22042559127709       -0.51630529109153        1.11155641956926
H           -0.22333755622848        0.74399667574374       -0.81397952291581
H           -0.04891491426910        0.67646794321249        0.93995902007796
H           -2.18269945808878        1.97893481385382        1.16687134095850
H           -2.24870894540336        2.13685936655145       -0.58743747881837
H           -1.30530368779530        4.14074436036352        0.59186287416967
H            0.02851823531673        3.14153111101966        1.17080261847597
H            0.79765760156743        2.76900324616837       -1.13401577182439
H           -0.63907519281475        3.57083894160870       -1.77073425055945
H            0.10632496361968        5.70260766058759       -0.68333867781707
H            1.20800826308011        5.10193474571956       -1.92128447051192
H            1.57982571558453        4.82740803973571        1.09111014788618
H            2.63321367409266        4.09042721744182       -0.11669632158503
H            3.17621410657588        6.33967795370687       -1.01834862932842
H            2.09419764569169        7.08042646911465        0.16013040965980
H            4.57404228456353        5.43606100865676        0.83243774810314
H            3.49053328575331        6.17378243878128        2.01137553041054
H            4.04129728903017        8.43353327342249        1.10304793371859
H            5.49362306640863        7.59412740304158        1.65054526547440
H            5.12836217947592        7.69523112417957       -0.07283879702652
