53
 energy: -54.797019664019 gnorm: 0.036776275974 xtb: 6.6.1 (8d0f1dd)
C           -1.17532900000000       -9.40056500000000       -0.41100300000000
C           -1.95765500000000       -8.11573100000000       -0.18845200000000
C           -1.08274100000000       -6.86490300000000       -0.28713100000000
C           -1.86738900000000       -5.56902300000000       -0.08089200000000
C           -0.98722500000000       -4.32074800000000       -0.14423900000000
C           -1.77658400000000       -3.02373600000000        0.03418500000000
C           -0.89175900000000       -1.77763400000000        0.00189300000000
C           -1.68113700000000       -0.47892700000000        0.16502200000000
C           -0.79158700000000        0.76446100000000        0.15287900000000
C           -1.58166200000000        2.06471300000000        0.30354900000000
C           -0.69784900000000        3.31530500000000        0.34970500000000
C            0.04663400000000        3.58352200000000       -0.95959400000000
C            0.82496000000000        4.90248900000000       -0.96240300000000
C            1.97134900000000        4.93961000000000        0.04878700000000
C            2.77741100000000        6.23737300000000       -0.01398400000000
C            3.91032200000000        6.28953000000000        1.01233600000000
C            4.70774900000000        7.58273600000000        0.94281600000000
H           -0.71829400000000       -9.41840600000000       -1.40331000000000
H           -0.36728800000000       -9.50263000000000        0.31733900000000
H           -1.80900400000000      -10.28728300000000       -0.32570600000000
H           -2.44937100000000       -8.13702500000000        0.79378200000000
H           -2.77894600000000       -8.04236300000000       -0.91442900000000
H           -0.58178400000000       -6.84096700000000       -1.26328800000000
H           -0.26967400000000       -6.92502300000000        0.44750700000000
H           -2.38860400000000       -5.60307900000000        0.88433700000000
H           -2.66458900000000       -5.49708000000000       -0.83177300000000
H           -0.20384700000000       -4.38377900000000        0.62168200000000
H           -0.44876000000000       -4.29621600000000       -1.10007000000000
H           -2.54617000000000       -2.95041500000000       -0.74470000000000
H           -2.33199000000000       -3.05688700000000        0.98007100000000
H           -0.13009800000000       -1.84659700000000        0.78885400000000
H           -0.32734300000000       -1.75030700000000       -0.93877900000000
H           -2.43311000000000       -0.40226900000000       -0.63026900000000
H           -2.25671700000000       -0.51163900000000        1.09846300000000
H           -0.20996300000000        0.78497100000000       -0.77648300000000
H           -0.04543300000000        0.69191700000000        0.95405900000000
H           -2.19612300000000        2.00561100000000        1.21195400000000
H           -2.29968700000000        2.15277400000000       -0.52137000000000
H           -1.30590100000000        4.19462100000000        0.60040000000000
H            0.02059600000000        3.21969800000000        1.17246400000000
H            0.73544200000000        2.75681900000000       -1.17010600000000
H           -0.67491900000000        3.57379200000000       -1.78725200000000
H            0.13803600000000        5.73501300000000       -0.76503600000000
H            1.22840300000000        5.09691000000000       -1.96527100000000
H            1.57969500000000        4.80435700000000        1.06408400000000
H            2.63723100000000        4.08336700000000       -0.11663800000000
H            3.18782900000000        6.36842600000000       -1.02319500000000
H            2.10785700000000        7.09414800000000        0.13342800000000
H            4.57421200000000        5.42691800000000        0.86401800000000
H            3.49359500000000        6.15572500000000        2.01999400000000
H            4.07027800000000        8.45048700000000        1.12604300000000
H            5.51613400000000        7.60802400000000        1.67808100000000
H            5.15722900000000        7.71741500000000       -0.04361600000000
53
 energy: -54.799981570801 gnorm: 0.016831703653 xtb: 6.6.1 (8d0f1dd)
C           -1.17291767697784       -9.38950176533097       -0.41094619334245
C           -1.95900815817877       -8.10615673455375       -0.18786559115996
C           -1.08025440979025       -6.85920312725516       -0.28722911450743
C           -1.86840300520869       -5.56599533968916       -0.08049951606565
C           -0.98600588312051       -4.31925093831719       -0.14411771658962
C           -1.77785617054840       -3.02355067235752        0.03469563847689
C           -0.89099729732409       -1.77866114414606        0.00225383506828
C           -1.68275535377816       -0.48096033701592        0.16560638055884
C           -0.78810073004914        0.75846281781523        0.15039078096657
C           -1.57754529893986        2.05948750629325        0.29564725320092
C           -0.69302442996610        3.30735067930246        0.35029680753004
C            0.05365258815310        3.58159311545535       -0.95522773021755
C            0.82404759440285        4.90358021506158       -0.95344041868687
C            1.97329896970269        4.93900058362648        0.05347959536467
C            2.77431405949848        6.23817927378260       -0.01740745715666
C            3.90509814284831        6.28431409735306        1.00988297743414
C            4.69999890879634        7.57928149286791        0.93726300081340
H           -0.72276360841118       -9.40276685814018       -1.40356345921903
H           -0.37189191531569       -9.48771050420528        0.32170258899083
H           -1.81657951069645      -10.26467372954830       -0.32329944783032
H           -2.43441937770274       -8.13513100564658        0.79884448411262
H           -2.76679428537480       -8.03933313077488       -0.92503750819193
H           -0.59524921521928       -6.83642022844442       -1.26903486462234
H           -0.28066844074922       -6.92132770256468        0.45878085626075
H           -2.37425658547933       -5.60201363216777        0.89042173879799
H           -2.65265137341161       -5.49504308264315       -0.84192967124091
H           -0.21539699923591       -4.38260553948690        0.63167594216674
H           -0.46327424768397       -4.29419620586162       -1.10628755652256
H           -2.53430938550714       -2.95011914585475       -0.75401078086992
H           -2.31781579939634       -3.05782294632811        0.98700700497515
H           -0.14215765713926       -1.84764564817369        0.79859621629969
H           -0.34186647287857       -1.75037060454863       -0.94506249376012
H           -2.42146166152722       -0.40343907203509       -0.63931224844117
H           -2.24321982518398       -0.51335730529976        1.10607552429428
H           -0.22303371283766        0.77725117174923       -0.78598962533422
H           -0.05652166585767        0.68794618492671        0.96253655329036
H           -2.17525115238885        2.00801338000586        1.21271122604802
H           -2.28504208896019        2.15067249620439       -0.53546122423502
H           -1.31546135898255        4.17758892781673        0.58734951964539
H            0.02510582230650        3.19887532037576        1.16817130137315
H            0.75098620882395        2.76351598103389       -1.15742392216325
H           -0.67085419975758        3.59216004176597       -1.77731569564623
H            0.13374692000275        5.72825753581294       -0.74581333025074
H            1.22992637355534        5.07848847234085       -1.95628210632384
H            1.57629846040966        4.82086313832543        1.06592151409519
H            2.64090044370591        4.08988939462972       -0.12864831102565
H            3.19330889635661        6.35486757475453       -1.02270431548809
H            2.10293239993411        7.08801487983952        0.14617311149282
H            4.57569901641763        5.43303203927365        0.84847396101699
H            3.48522349017135        6.16872908691105        2.01532137850355
H            4.05876221535398        8.44027547668106        1.12552446436905
H            5.50157457671086        7.59011939266144        1.67559914161598
H            5.14936386642855        7.70494612372287       -0.04774949787076
53
 energy: -54.800512966987 gnorm: 0.002576362424 xtb: 6.6.1 (8d0f1dd)
C           -1.17123310934680       -9.37948695712775       -0.41075814939067
C           -1.96048961997408       -8.09556662427403       -0.18724984686375
C           -1.07839410183748       -6.85161437357183       -0.28690229796882
C           -1.86995696972465       -5.56053148632627       -0.07987244800087
C           -0.98394955680857       -4.31609071532457       -0.14411323599215
C           -1.78027673661465       -3.02282853556062        0.03565878515800
C           -0.88950305772752       -1.78031477591999        0.00236535840963
C           -1.68440588610258       -0.48398093566292        0.16570253027655
C           -0.78379720157358        0.75140595046093        0.14669096631258
C           -1.57433604726794        2.05214974379524        0.28997793405603
C           -0.68870873961947        3.29885582742283        0.35096693653200
C            0.05912498892752        3.57782466209129       -0.95248007074265
C            0.82307110084722        4.90337567484014       -0.94688044469380
C            1.97315300358061        4.93748727278067        0.05843762920090
C            2.77101279442292        6.23754965804676       -0.01944758642915
C            3.90082738692988        6.28007579625500        1.00779671482518
C            4.69532050675635        7.57733211332317        0.93330822586786
H           -0.72372085294419       -9.38819426620553       -1.40255986618058
H           -0.37415538795962       -9.47379910099172        0.32397028294538
H           -1.82069827593058      -10.24805127259065       -0.32234926158886
H           -2.42770823552444       -8.12779380216698        0.80023571708126
H           -2.76057964391129       -8.03142834612135       -0.92901216658474
H           -0.60102632058293       -6.82953633443474       -1.26994186499668
H           -0.28617888894032       -6.91483291588999        0.46359304457531
H           -2.36802364718263       -5.59783450946064        0.89251151095980
H           -2.64707132025202       -5.49043520310135       -0.84546803799486
H           -0.22022047709099       -4.37982049398603        0.63534422831761
H           -0.46955247997254       -4.29093498510052       -1.10831534959866
H           -2.52962161020951       -2.94954253895770       -0.75676663422231
H           -2.31204600212198       -3.05791250296478        0.99003844556747
H           -0.14756930461731       -1.84909638652672        0.80220206335971
H           -0.34850580979865       -1.75156812338324       -0.94712428405745
H           -2.41661837854095       -0.40626780808066       -0.64219419715265
H           -2.23626642159789       -0.51532703142647        1.10888465295875
H           -0.22662921453779        0.76635436102036       -0.79171655640599
H           -0.06066520156840        0.68238631961239        0.96360124518031
H           -2.16550152857331        2.00431714089576        1.20885118086320
H           -2.27339681496568        2.14548110673538       -0.54525294184232
H           -1.31894321148452        4.16245959647338        0.58185992904411
H            0.02678141532977        3.18225516695737        1.16694510681668
H            0.76316031108421        2.76780554037808       -1.15137889604908
H           -0.66502042686022        3.59882273679039       -1.77176919249584
H            0.13068982736539        5.72143107747120       -0.73129857113521
H            1.22851984506151        5.07191415092974       -1.94853544372597
H            1.57740005380499        4.82842322534721        1.06977716309871
H            2.64116178629303        4.09339714195507       -0.13210218534034
H            3.19272680418837        6.34707875994930       -1.02199029472921
H            2.09988655467615        7.08333094140828        0.15099432658728
H            4.57291040234621        5.43478743906512        0.83969366499102
H            3.47960066948302        6.17263032793959        2.01059001859948
H            4.05060799137521        8.43326056996113        1.12250128584421
H            5.49305172664657        7.58050977360460        1.67320969970988
H            5.14219331264611        7.69758794964663       -0.05148582295629
53
 energy: -54.800572056959 gnorm: 0.001776342931 xtb: 6.6.1 (8d0f1dd)
C           -1.17093768578570       -9.37435465990264       -0.41052972075008
C           -1.96122256514753       -8.09017415100364       -0.18698396139532
C           -1.07789755395615       -6.84745623532513       -0.28653590061688
C           -1.87051248831591       -5.55732821035234       -0.07953678932835
C           -0.98349106182939       -4.31412754840225       -0.14400700926015
C           -1.78111022692339       -3.02223999363919        0.03617609425505
C           -0.88907575054708       -1.78122163245965        0.00235799140032
C           -1.68439581188796       -0.48560047058705        0.16557040597437
C           -0.78163812132610        0.74787034878195        0.14476832329276
C           -1.57279458039586        2.04804487723794        0.28677988445805
C           -0.68677663417404        3.29458063391801        0.35119382959510
C            0.06123254812687        3.57487182966245       -0.95168712757502
C            0.82179755058282        4.90267004736354       -0.94351661968527
C            1.97253569220484        4.93630954275083        0.06071843539697
C            2.76937940152069        6.23677483772174       -0.01975848668893
C            3.89936635872768        6.27852115655788        1.00702245164811
C            4.69380625963841        7.57665932945033        0.93174386463153
H           -0.72295960896475       -9.38102338697038       -1.40182926822566
H           -0.37464611420306       -9.46711568371599        0.32484320422533
H           -1.82075136052568      -10.24229776261212       -0.32274570822766
H           -2.42788440109947       -8.12209032548111        0.80014903200367
H           -2.76014824101541       -8.02554689810208       -0.92913376334228
H           -0.60079907555465       -6.82478283065731       -1.26913432955156
H           -0.28662648674256       -6.91017848433628        0.46426364184948
H           -2.36794698767342       -5.59425846377204        0.89257878089343
H           -2.64676021658961       -5.48688325729249       -0.84520922793132
H           -0.22032735379786       -4.37765434730920        0.63524754304717
H           -0.47006919750233       -4.28857963550696       -1.10808858525930
H           -2.52989745222181       -2.94897356849958       -0.75599551098068
H           -2.31181443797765       -3.05747845806531        0.99050240999968
H           -0.14782008393974       -1.85012237286484        0.80205750255994
H           -0.34902930194937       -1.75288954868662       -0.94703650680513
H           -2.41659013711885       -0.40830987224314       -0.64164462505097
H           -2.23462632958114       -0.51619003533825        1.10907585414206
H           -0.22526706736199        0.76017607557647       -0.79357288904752
H           -0.05929463534504        0.67873765241295        0.96163010824951
H           -2.16514487558661        1.99910239708294        1.20416272078619
H           -2.26906920721441        2.14173625378771       -0.55009352338476
H           -1.31764163086930        4.15686507154535        0.58254880324419
H            0.02751086695499        3.17540353147741        1.16731628741593
H            0.76807296217548        2.76780485902822       -1.15046209393049
H           -0.66198235262702        3.59576586349065       -1.77101348377012
H            0.12800085036906        5.71811785814991       -0.72497328646305
H            1.22637225800745        5.07391115026089       -1.94448001046318
H            1.57875106879208        4.82857400724133        1.07246668046923
H            2.64044586262644        4.09292077288977       -0.13038510964500
H            3.19012305992051        6.34497945002505       -1.02231554616072
H            2.09837360816426        7.08205573536315        0.15063732195165
H            4.57095978720579        5.43373563317562        0.83791775973239
H            3.47827880568422        6.17141680283888        2.00931589834556
H            4.04782403403857        8.43138893482978        1.12034649075545
H            5.49119417683676        7.57964643229570        1.67149143183912
H            5.13935388417389        7.69573674820907       -0.05347066862286
53
 energy: -54.800642229457 gnorm: 0.004349329704 xtb: 6.6.1 (8d0f1dd)
C           -1.17059147701604       -9.35925994813193       -0.40971414635759
C           -1.96296597111858       -8.07535181867524       -0.18650734426799
C           -1.07755795105823       -6.83548303842470       -0.28507515438812
C           -1.87185802138764       -5.54787376629292       -0.07855810185154
C           -0.98307719557441       -4.30821543782483       -0.14357488303654
C           -1.78289703888868       -3.02018950067386        0.03785642474682
C           -0.88805596856069       -1.78380095662067        0.00229537475690
C           -1.68294276305136       -0.49013728797576        0.16507224243577
C           -0.77571632008728        0.73822965584128        0.13839332109131
C           -1.56833020206658        2.03631417523153        0.27697615025206
C           -0.68151986272724        3.28161263569257        0.35161739374560
C            0.06728739232909        3.56586596187615       -0.94924833603001
C            0.81714550052698        4.89998342626951       -0.93375122771253
C            1.96967277644664        4.93276377475376        0.06740212522796
C            2.76486254193582        6.23354974010410       -0.01949983493297
C            3.89620569869177        6.27513969133321        1.00490866703042
C            4.68973065694775        7.57492014461770        0.92699631322614
H           -0.71984448727247       -9.36053048525010       -1.39952404534348
H           -0.37611406606723       -9.44844536279777        0.32770950464240
H           -1.81899885522099      -10.22785771957613       -0.32494356473128
H           -2.43063082623412       -8.10533981259371        0.79959388830114
H           -2.76039830351549       -8.00823927172341       -0.92923657555454
H           -0.59888329269570       -6.81060168677584       -1.26632272518974
H           -0.28721656228734       -6.89637116811036        0.46614476222263
H           -2.36958721811880       -5.58318207299895        0.89283036660224
H           -2.64753915352788       -5.47609784164456       -0.84387513600052
H           -0.21943059189602       -4.37107374145320        0.63444701782521
H           -0.47043600902850       -4.28136846520587       -1.10736011698387
H           -2.53239895221661       -2.94676161376413       -0.75278497856507
H           -2.31235320901162       -3.05551243652741        0.99218695228559
H           -0.14662072856351       -1.85332424321550        0.80095375071789
H           -0.34880012233283       -1.75726729939074       -0.94689163349481
H           -2.41749422367426       -0.41420299759557       -0.63932507824188
H           -2.23002521258563       -0.51817592678790        1.10974890241749
H           -0.21958091619248        0.74307875726840       -0.79972648386491
H           -0.05325485665208        0.66877208783740        0.95431064609117
H           -2.16827130728349        1.98238819922234        1.18843354949659
H           -2.25664814741284        2.13104479055048       -0.56564068460203
H           -1.31138679131701        4.14254084137215        0.58684064191182
H            0.03025900635860        3.15546349154894        1.16847346937809
H            0.78196484688564        2.76596422773906       -1.14752191654629
H           -0.65304066500129        3.58197484165779       -1.77022949642442
H            0.11782742209777        5.70753145692374       -0.70582616327683
H            1.21825075998593        5.08389828370948       -1.93334936868225
H            1.58154590150287        4.82659159145643        1.08118324326831
H            2.63727742004117        4.08981229147628       -0.12389383155621
H            3.18173852745186        6.33913667352602       -1.02346414578873
H            2.09385833802006        7.07861365709992        0.14932019654254
H            4.56645223973249        5.43023434995175        0.83421550434472
H            3.47644194840349        6.16713106437206        2.00711770352735
H            4.04080132905255        8.42749683208680        1.11372828921028
H            5.48755077038262        7.58044763508302        1.66552380317614
H            5.13202419285176        7.69166362142915       -0.05969223105048
53
 energy: -54.800658191306 gnorm: 0.002192905194 xtb: 6.6.1 (8d0f1dd)
C           -1.17061918437533       -9.35871773667951       -0.40965660991948
C           -1.96298304201861       -8.07558720490050       -0.18669220240083
C           -1.07818168059746       -6.83539926684806       -0.28477544057826
C           -1.87202014362129       -5.54776195552012       -0.07847459391396
C           -0.98359097652241       -4.30815095632626       -0.14346703007690
C           -1.78262437024104       -3.01996270746149        0.03808662694910
C           -0.88793774188819       -1.78380208957093        0.00223644527602
C           -1.68212386394556       -0.49006364857752        0.16493428546160
C           -0.77570218898167        0.73848257048621        0.13765368333964
C           -1.56821692318612        2.03642055732204        0.27592584669371
C           -0.68138358122004        3.28090076868256        0.35163145746516
C            0.06781808912279        3.56544286958073       -0.94891205739987
C            0.81632991816227        4.89971411296270       -0.93302832545307
C            1.96912928698169        4.93264874611042        0.06780517831439
C            2.76478787647220        6.23301701773462       -0.01875562969975
C            3.89672945900362        6.27556992490449        1.00493196025233
C            4.68954797298463        7.57504855975525        0.92632809984802
H           -0.71914199409258       -9.36009175790347       -1.39930814695969
H           -0.37632250622079       -9.44838750627687        0.32813730863887
H           -1.81819912252119      -10.22818492557986       -0.32563536026905
H           -2.43155443091116       -8.10549840648448        0.79940276248278
H           -2.76074983231294       -8.00830668453661       -0.92959933877291
H           -0.59878904855155       -6.81041838572316       -1.26606079992538
H           -0.28754715287406       -6.89632643071107        0.46664582822628
H           -2.37029238934331       -5.58287067091077        0.89305790683684
H           -2.64816916617371       -5.47592998776568       -0.84384104336390
H           -0.21930094677147       -4.37108327849856        0.63445411957072
H           -0.47054147426251       -4.28124243963707       -1.10746956921703
H           -2.53291274449321       -2.94633416368463       -0.75233138531578
H           -2.31233433444156       -3.05502433740232        0.99272537132553
H           -0.14580759842271       -1.85345409476040        0.80076179117911
H           -0.34832288944845       -1.75760154777486       -0.94720208691164
H           -2.41758657816948       -0.41425085192088       -0.63914962889297
H           -2.22923606368453       -0.51777075170174        1.11003479381341
H           -0.21932731959322        0.74352351451514       -0.80070066841651
H           -0.05240913289719        0.66949298947381        0.95339609311452
H           -2.16997882496573        1.98199277548725        1.18655243359700
H           -2.25589289104149        2.13148142038992       -0.56755786523857
H           -1.31023793455984        4.14274432654797        0.58781186403485
H            0.03075565929445        3.15420841907787        1.16843657835688
H            0.78282334536171        2.76533826980907       -1.14650137800588
H           -0.65227215144813        3.57984815026159       -1.77065310072280
H            0.11602365833659        5.70644795394492       -0.70409914937563
H            1.21664228119573        5.08568173542627       -1.93288411387734
H            1.58066154823468        4.82591899063667        1.08172643463023
H            2.63652901139096        4.08905851148489       -0.12342517054730
H            3.18137019805875        6.33865291632330       -1.02318867662568
H            2.09373019724869        7.07847722975225        0.14997034979247
H            4.56732443780274        5.43043109155728        0.83445818438163
H            3.47763677764293        6.16734589986472        2.00779899337633
H            4.04092512441803        8.42806804627266        1.11312255795583
H            5.48793964751664        7.58171820839451        1.66452226602537
H            5.13203573456940        7.69204621039766       -0.06043684905844
53
 energy: -54.800670237165 gnorm: 0.000884278253 xtb: 6.6.1 (8d0f1dd)
C           -1.17042275737003       -9.35757468184764       -0.40957641204278
C           -1.96335206557894       -8.07594004644725       -0.18712886121040
C           -1.07952773904410       -6.83512829961042       -0.28402455399017
C           -1.87280324661100       -5.54749570170866       -0.07816928740580
C           -0.98461276603417       -4.30810043567399       -0.14320061709943
C           -1.78220536900451       -3.01948608918673        0.03874052243037
C           -0.88737272642108       -1.78387614818044        0.00200162502122
C           -1.68056462315802       -0.49002994542087        0.16462364086494
C           -0.77548067468248        0.73884047855691        0.13560601842605
C           -1.56817548161468        2.03645023303000        0.27317719864875
C           -0.68087420017963        3.27913076762406        0.35180012555574
C            0.06948369958888        3.56446376175085       -0.94793447212244
C            0.81463124341913        4.89957442683797       -0.93094838841845
C            1.96807648690724        4.93245778142707        0.06924157783267
C            2.76447360469490        6.23208468973917       -0.01718438183056
C            3.89775770446165        6.27627166521619        1.00496331528835
C            4.68907466854848        7.57552989904011        0.92442939549408
H           -0.71723612461153       -9.35869141974266       -1.39868470863090
H           -0.37689487865873       -9.44796058222356        0.32927379051093
H           -1.81673238189213      -10.22843609214937       -0.32731115091163
H           -2.43349688265335       -8.10609538052463        0.79874072282077
H           -2.76115030423567       -8.00864854017891       -0.93069775850480
H           -0.59894962101643       -6.81000719364130       -1.26521285499157
H           -0.28889230760864       -6.89630748723717        0.46801439840433
H           -2.37176906974050       -5.58227245081252        0.89354515777884
H           -2.64940789556558       -5.47566494976973       -0.84374493478863
H           -0.21942226119526       -4.37138192662828        0.63449512502484
H           -0.47130340874195       -4.28117463001774       -1.10762623020542
H           -2.53374947871343       -2.94540166599349       -0.75113706629967
H           -2.31177031884675       -3.05392780656758        0.99404769290178
H           -0.14418728684662       -1.85367299514603        0.80021135004287
H           -0.34762701461187       -1.75836198410412       -0.94796395963366
H           -2.41758868517639       -0.41464598648756       -0.63872334508908
H           -2.22708060811559       -0.51698239112845        1.11065443422117
H           -0.21921286226121        0.74418985477856       -0.80329095903293
H           -0.05090144923400        0.67126986108204        0.95100080105993
H           -2.17349315997134        1.98118511344345        1.18191998492188
H           -2.25374656594020        2.13252087057545       -0.57241917770916
H           -1.30786603378280        4.14244863670131        0.58962989057998
H            0.03159055498475        3.15062602162047        1.16847235847005
H            0.78574228785377        2.76460698426657       -1.14372738773161
H           -0.64981795969458        3.57577918405362       -1.77110483942637
H            0.11219905651215        5.70412674451461       -0.69933026397930
H            1.21318951084893        5.08956788556164       -1.93115156977775
H            1.57904031923360        4.82498248826582        1.08326735074766
H            2.63484616636825        4.08788211812197       -0.12235483397713
H            3.18039994424212        6.33756740573603       -1.02233171143664
H            2.09352223655348        7.07807295631787        0.15181827074898
H            4.56907409831403        5.43112176445190        0.83453781145942
H            3.48027693402226        6.16809582251634        2.00900286524344
H            4.04075269607464        8.42907042202459        1.11124684541800
H            5.48853508428685        7.58422042985729        1.66188937342211
H            5.13145191189804        7.69262656331719       -0.06262891709290
53
 energy: -54.800674435594 gnorm: 0.001181786077 xtb: 6.6.1 (8d0f1dd)
C           -1.17005964114932       -9.35737257834259       -0.40958288627501
C           -1.96396067823022       -8.07649971501060       -0.18753652182605
C           -1.08055822784330       -6.83524510406458       -0.28337151692047
C           -1.87381968580180       -5.54759430361492       -0.07781895090583
C           -0.98530836172723       -4.30840481775070       -0.14295975196129
C           -1.78202737637201       -3.01932107665108        0.03936907123471