 Entering Gaussian System
 *********************************************
 Gaussian 98:
 frequency output generated by the xtb code
 *********************************************
                         Standard orientation:
 --------------------------------------------------------------------
  Center     Atomic     Atomic              Coordinates (Angstroms)
  Number     Number      Type              X           Y           Z
 --------------------------------------------------------------------
    1          6             0        3.585855    0.111593   -1.182477
    2          6             0        2.670368    0.566394   -0.052619
    3          6             0        1.405102   -0.283835    0.035976
    4          6             0        0.489913    0.179057    1.167171
    5          6             0       -0.728143   -0.722048    1.377589
    6          6             0       -1.691333   -0.796953    0.191790
    7          6             0       -2.338421    0.541837   -0.155363
    8          6             0       -3.395735    0.387900   -1.242108
    9          1             0        3.906307   -0.916052   -1.024167
   10          1             0        4.470597    0.741891   -1.236767
   11          1             0        3.068445    0.164192   -2.138190
   12          1             0        3.210534    0.510960    0.895643
   13          1             0        2.390256    1.610754   -0.211110
   14          1             0        0.875575   -0.225976   -0.916605
   15          1             0        1.682639   -1.328132    0.200177
   16          1             0        1.065223    0.194142    2.097078
   17          1             0        0.163452    1.202440    0.973619
   18          1             0       -0.379261   -1.732985    1.604596
   19          1             0       -1.278016   -0.361060    2.250908
   20          1             0       -1.169611   -1.185239   -0.684667
   21          1             0       -2.481080   -1.511154    0.440827
   22          1             0       -2.798905    0.962760    0.741796
   23          1             0       -1.576276    1.243072   -0.499119
   24          1             0       -3.838878    1.350747   -1.486501
   25          1             0       -4.188500   -0.280865   -0.913121
   26          1             0       -2.954716   -0.025941   -2.146669
 --------------------------------------------------------------------
     1 basis functions        1 primitive gaussians
     1 alpha electrons        1 beta electrons
 
 Harmonic frequencies (cm**-1), IR intensities (KM/Mole),
 Raman scattering activities (A**4/amu), Raman depolarization ratios,
 reduced masses (AMU), force constants (mDyne/A) and normal coordinates:
                      1                      2                      3
                        a                      a                      a 
 Frequencies --    33.7508                62.4748                69.3090
 Red. masses --    99.0000                99.0000                99.0000
 Frc consts  --    99.0000                99.0000                99.0000
 IR Inten    --    99.0000                99.0000                99.0000
 Raman Activ --     0.0000                 0.0000                 0.0000
 Depolar     --     0.0000                 0.0000                 0.0000
 Atom AN      X      Y      Z        X      Y      Z        X      Y      Z
   1   6     0.35  -0.16   0.25    -0.00  -0.03  -0.07     0.06   0.06   0.09
   2   6     0.12   0.04  -0.02     0.26  -0.27   0.24     0.06  -0.05   0.13
   3   6     0.17  -0.03  -0.03    -0.11   0.24  -0.18    -0.04   0.07  -0.07
   4   6     0.00   0.09  -0.21     0.01   0.15  -0.04    -0.03   0.00  -0.03
   5   6     0.05   0.03  -0.21     0.03   0.13   0.01    -0.02  -0.02  -0.05
   6   6    -0.00   0.06  -0.17     0.04   0.03   0.01    -0.00  -0.04  -0.06
   7   6    -0.31  -0.01   0.14    -0.19  -0.06   0.08     0.30   0.04  -0.33
   8   6    -0.38  -0.02   0.21    -0.04  -0.17  -0.06    -0.32  -0.07   0.28
   9   1     0.12  -0.03   0.16    -0.15  -0.08  -0.21    -0.02  -0.00  -0.03
  10   1     0.09  -0.03   0.07     0.09  -0.13   0.09     0.04  -0.01   0.08
  11   1     0.15  -0.13   0.04    -0.00   0.24  -0.01     0.03   0.09   0.02
  12   1    -0.01   0.09   0.03     0.08  -0.31   0.05     0.00  -0.08   0.04
  13   1     0.02  -0.00  -0.09     0.21  -0.02   0.25     0.05   0.00   0.09
  14   1     0.08  -0.06  -0.03    -0.01   0.25  -0.05     0.00   0.08  -0.02
  15   1     0.06   0.01   0.05    -0.16   0.02  -0.17    -0.04   0.00  -0.06
  16   1    -0.03   0.08  -0.04     0.03   0.01  -0.03    -0.00  -0.01  -0.01
  17   1    -0.01   0.01  -0.12     0.00   0.05   0.03    -0.01   0.00   0.01
  18   1     0.03   0.01  -0.08     0.02   0.04   0.01    -0.00  -0.00  -0.01
  19   1     0.02  -0.01  -0.05     0.01   0.04  -0.00    -0.01  -0.00  -0.02
  20   1     0.01   0.10  -0.08     0.03   0.05  -0.00    -0.02  -0.10   0.01
  21   1     0.05  -0.04  -0.07     0.05  -0.03  -0.01    -0.05   0.05   0.02
  22   1    -0.09  -0.08   0.08    -0.11  -0.07   0.02     0.26   0.17  -0.08
  23   1    -0.14   0.06   0.06    -0.09   0.04   0.07     0.11  -0.11  -0.30
  24   1    -0.17  -0.02   0.13    -0.07  -0.07   0.00    -0.00   0.00  -0.00
  25   1    -0.06  -0.07   0.05     0.02  -0.11  -0.07    -0.13   0.14   0.30
  26   1    -0.11   0.07   0.03     0.05   0.01  -0.02    -0.28  -0.22   0.08
                      4                      5                      6
                        a                      a                      a 
 Frequencies --   103.5599               234.1349               151.6355
 Red. masses --    99.0000                99.0000                99.0000
 Frc consts  --    99.0000                99.0000                99.0000
 IR Inten    --    99.0000                99.0000                99.0000
 Raman Activ --     0.0000                 0.0000                 0.0000
 Depolar     --     0.0000                 0.0000                 0.0000
 Atom AN      X      Y      Z        X      Y      Z        X      Y      Z
   1   6    -0.15   0.24  -0.25    -0.02   0.03  -0.03     0.29   0.30   0.08
   2   6     0.15  -0.17   0.16     0.12  -0.17   0.17    -0.01  -0.12  -0.00
   3   6     0.29  -0.35   0.35    -0.06   0.08  -0.07     0.04  -0.24  -0.23
   4   6     0.04  -0.00   0.01    -0.08   0.12  -0.10     0.02  -0.10  -0.29
   5   6    -0.06   0.14  -0.03     0.01   0.02  -0.01    -0.03   0.06   0.09
   6   6     0.03   0.11  -0.11    -0.02  -0.11   0.02    -0.32  -0.02   0.33
   7   6    -0.10   0.06  -0.09     0.05  -0.08  -0.00    -0.09   0.02   0.08
   8   6    -0.16  -0.05  -0.02     0.01   0.08   0.02     0.07   0.03  -0.08
   9   1    -0.00   0.06  -0.19     0.41   0.17   0.18     0.12   0.09  -0.04
  10   1    -0.06   0.10  -0.10    -0.25   0.33  -0.34     0.06   0.13   0.14
  11   1    -0.13   0.14  -0.02    -0.21  -0.42   0.08     0.15   0.14  -0.01
  12   1     0.13  -0.08  -0.01     0.05  -0.15   0.04    -0.04  -0.06   0.02
  13   1    -0.02  -0.05   0.13     0.08  -0.02   0.14    -0.04  -0.04   0.05
  14   1     0.12  -0.24   0.07     0.01   0.10  -0.03     0.03  -0.08  -0.08
  15   1     0.12  -0.07   0.23    -0.09  -0.00  -0.06     0.02  -0.06  -0.04
  16   1    -0.05   0.07   0.04    -0.02   0.07  -0.03     0.02   0.02  -0.10
  17   1     0.04  -0.01  -0.11    -0.05   0.02  -0.05     0.02  -0.03  -0.13
  18   1    -0.05   0.04   0.03     0.03   0.02   0.01    -0.03   0.02   0.05
  19   1    -0.03   0.08  -0.03    -0.00   0.01  -0.01     0.06   0.08   0.05
  20   1     0.03   0.06  -0.03    -0.01  -0.05   0.01    -0.17  -0.10   0.10
  21   1     0.02   0.01  -0.06    -0.01  -0.02   0.03    -0.12   0.06   0.20
  22   1    -0.03   0.01  -0.02     0.03  -0.02   0.01    -0.05   0.06  -0.01
  23   1    -0.05   0.04  -0.04     0.03  -0.04  -0.00     0.02  -0.04   0.03
  24   1    -0.08  -0.03  -0.00    -0.01   0.03   0.07     0.10   0.02  -0.11
  25   1    -0.02  -0.03   0.01     0.02  -0.01  -0.03    -0.04   0.08  -0.03
  26   1    -0.05  -0.01  -0.01    -0.00   0.09  -0.03     0.05  -0.08   0.03
                      7                      8                      9
                        a                      a                      a 
 Frequencies --   227.7492               202.4427               265.6485
 Red. masses --    99.0000                99.0000                99.0000
 Frc consts  --    99.0000                99.0000                99.0000
 IR Inten    --    99.0000                99.0000                99.0000
 Raman Activ --     0.0000                 0.0000                 0.0000
 Depolar     --     0.0000                 0.0000                 0.0000
 Atom AN      X      Y      Z        X      Y      Z        X      Y      Z
   1   6     0.03   0.07   0.06     0.11   0.07   0.02     0.01   0.10   0.08
   2   6    -0.14  -0.06  -0.03    -0.05  -0.03  -0.06    -0.24  -0.16  -0.04
   3   6    -0.10  -0.12  -0.07    -0.05  -0.05  -0.13    -0.20  -0.19  -0.13
   4   6    -0.02   0.01  -0.07     0.27  -0.33   0.26    -0.03   0.06  -0.09
   5   6    -0.06   0.11   0.10    -0.08   0.11   0.08    -0.08   0.22   0.11
   6   6     0.07  -0.06   0.01     0.04   0.30  -0.03     0.38  -0.05  -0.21
   7   6     0.22  -0.02  -0.13    -0.12   0.20  -0.09     0.07  -0.12   0.13
   8   6    -0.00   0.04   0.09    -0.12  -0.24  -0.05     0.08   0.06   0.12
   9   1    -0.03   0.00  -0.02     0.18   0.08   0.09     0.05   0.04   0.01
  10   1     0.03  -0.00   0.11    -0.06   0.14  -0.06    -0.02   0.07   0.10
  11   1     0.07   0.09  -0.01     0.01  -0.13   0.01     0.06   0.04  -0.00
  12   1    -0.06  -0.01   0.00    -0.03  -0.00  -0.01    -0.10  -0.04   0.01
  13   1    -0.06  -0.02  -0.01    -0.03  -0.01  -0.02    -0.10  -0.05   0.00
  14   1    -0.03  -0.05  -0.02    -0.07   0.10   0.00    -0.05  -0.05  -0.04
  15   1    -0.03  -0.03  -0.00    -0.03  -0.04  -0.17    -0.08  -0.06  -0.02
  16   1     0.01   0.02  -0.03     0.12  -0.29   0.05     0.02   0.05  -0.05
  17   1     0.01   0.00  -0.05     0.18  -0.03   0.23     0.02   0.02  -0.07
  18   1    -0.04   0.04   0.11    -0.13  -0.00   0.05    -0.06   0.09   0.18
  19   1    -0.03   0.10  -0.01    -0.02   0.09   0.00    -0.09   0.18  -0.06
  20   1     0.03  -0.07   0.03     0.04   0.11  -0.00     0.24   0.12  -0.04
  21   1    -0.00   0.02   0.02     0.02   0.06  -0.05     0.16  -0.12  -0.20
  22   1     0.12   0.03  -0.03    -0.06   0.06  -0.04    -0.00  -0.14   0.08
  23   1     0.07  -0.04  -0.09    -0.07   0.09  -0.05    -0.02   0.04   0.10
  24   1    -0.34  -0.05   0.40    -0.12  -0.12  -0.06     0.18   0.06  -0.07
  25   1     0.25  -0.35  -0.10     0.03  -0.13   0.02    -0.09   0.17   0.08
  26   1     0.03   0.45  -0.16    -0.01  -0.07  -0.00    -0.02  -0.14   0.09
                     10                     11                     12
                        a                      a                      a 
 Frequencies --   295.3607               399.7959               417.4139
 Red. masses --    99.0000                99.0000                99.0000
 Frc consts  --    99.0000                99.0000                99.0000
 IR Inten    --    99.0000                99.0000                99.0000
 Raman Activ --     0.0000                 0.0000                 0.0000
 Depolar     --     0.0000                 0.0000                 0.0000
 Atom AN      X      Y      Z        X      Y      Z        X      Y      Z
   1   6     0.11  -0.01  -0.09    -0.42  -0.09   0.22    -0.14   0.03   0.14
   2   6     0.15   0.10  -0.07    -0.03   0.26   0.28    -0.23  -0.13   0.05
   3   6     0.12   0.11   0.05     0.21  -0.06  -0.23    -0.12  -0.14  -0.01
   4   6     0.15  -0.09   0.18     0.20  -0.20  -0.31     0.27   0.16   0.08
   5   6    -0.14   0.19   0.10     0.04   0.13  -0.06     0.47  -0.01  -0.01
   6   6    -0.06  -0.31   0.02    -0.00  -0.01   0.01     0.16   0.06   0.13
   7   6    -0.12  -0.36  -0.11     0.01  -0.01   0.03    -0.14  -0.10  -0.17
   8   6    -0.22   0.29  -0.13     0.03  -0.01   0.03    -0.23   0.14  -0.21
   9   1    -0.00  -0.01  -0.02    -0.22  -0.05   0.11    -0.02   0.01   0.03
  10   1     0.05  -0.03  -0.02    -0.06  -0.13  -0.09    -0.05   0.03   0.07
  11   1     0.03   0.01  -0.03    -0.22  -0.05   0.11    -0.02   0.01   0.03
  12   1     0.06   0.05  -0.03    -0.03   0.06   0.09    -0.09  -0.04   0.03
  13   1     0.05   0.03  -0.04    -0.03   0.07   0.08    -0.10  -0.04   0.03
  14   1     0.00   0.06   0.03     0.12   0.01  -0.10    -0.07  -0.04   0.02
  15   1     0.04   0.02  -0.04     0.12  -0.01  -0.11    -0.06  -0.04   0.01
  16   1     0.04  -0.14   0.06     0.07  -0.08  -0.10     0.12   0.05  -0.00
  17   1     0.12   0.02   0.14     0.10  -0.04  -0.08     0.07   0.04   0.02
  18   1    -0.10   0.07   0.20    -0.06   0.04   0.09     0.22  -0.01  -0.17
  19   1    -0.07   0.20  -0.05     0.04   0.17  -0.05     0.17  -0.17   0.09
  20   1     0.01  -0.13   0.04    -0.01  -0.02   0.00    -0.00  -0.03   0.03
  21   1     0.01  -0.10   0.05     0.00   0.00   0.03     0.08   0.01   0.13
  22   1    -0.02  -0.11  -0.02     0.00  -0.01   0.01    -0.05  -0.01  -0.06
  23   1     0.00  -0.12   0.01     0.01  -0.00   0.02    -0.05  -0.02  -0.06
  24   1     0.06   0.17   0.07     0.01  -0.00   0.00    -0.00   0.09   0.01
  25   1    -0.14   0.15  -0.09     0.01  -0.00   0.01    -0.11   0.08  -0.09
  26   1    -0.13   0.12  -0.09     0.01  -0.01   0.01    -0.11   0.07  -0.09
                     13                     14                     15
                        a                      a                      a 
 Frequencies --   498.9248               758.1819               780.2269
 Red. masses --    99.0000                99.0000                99.0000
 Frc consts  --    99.0000                99.0000                99.0000
 IR Inten    --    99.0000                99.0000                99.0000
 Raman Activ --     0.0000                 0.0000                 0.0000
 Depolar     --     0.0000                 0.0000                 0.0000
 Atom AN      X      Y      Z        X      Y      Z        X      Y      Z
   1   6    -0.03   0.02   0.05     0.00   0.00  -0.00     0.00  -0.01   0.02
   2   6    -0.12  -0.10  -0.01     0.00   0.04  -0.01     0.07  -0.11   0.10
   3   6    -0.08  -0.04   0.10    -0.02   0.02  -0.12     0.08  -0.10   0.07
   4   6     0.19   0.19   0.12    -0.07   0.10  -0.10     0.05   0.04   0.02
   5   6     0.04   0.28  -0.49    -0.15   0.11   0.03    -0.04   0.06  -0.03
   6   6    -0.23  -0.15  -0.19    -0.10   0.00   0.12    -0.12  -0.03   0.03
   7   6     0.07  -0.04   0.14    -0.05  -0.10   0.06    -0.09  -0.04   0.09
   8   6     0.17  -0.08   0.16     0.02  -0.01   0.03     0.01  -0.00   0.03
   9   1     0.01   0.01  -0.00    -0.01   0.00   0.04     0.04  -0.02  -0.17
  10   1    -0.03   0.03   0.05     0.01  -0.02  -0.01    -0.03   0.04  -0.03
  11   1     0.01   0.02   0.00     0.01  -0.03  -0.01    -0.12   0.11   0.08
  12   1    -0.04  -0.02   0.00    -0.01  -0.13  -0.00    -0.00   0.37   0.06
  13   1    -0.05  -0.03  -0.00     0.08   0.05   0.10    -0.19  -0.13  -0.30
  14   1    -0.07  -0.03   0.05     0.10  -0.27  -0.10     0.03   0.33   0.03
  15   1    -0.06  -0.02   0.06     0.10   0.07   0.24    -0.18  -0.12  -0.26
  16   1     0.01  -0.16   0.07     0.07  -0.31  -0.07    -0.05   0.08   0.04
  17   1     0.21   0.13   0.15     0.16   0.14   0.26     0.05  -0.00  -0.11
  18   1     0.05   0.10  -0.10     0.11   0.03  -0.21     0.04   0.02  -0.08
  19   1    -0.04   0.06  -0.16     0.05  -0.18   0.15     0.01  -0.05   0.04
  20   1    -0.23  -0.15  -0.11     0.19   0.25   0.05     0.08   0.19  -0.02
  21   1    -0.08   0.03   0.14     0.09  -0.21  -0.20     0.07  -0.17  -0.13
  22   1     0.04  -0.04   0.06     0.12   0.20  -0.03     0.15   0.23  -0.01
  23   1     0.05  -0.03   0.08     0.10  -0.22  -0.14     0.07  -0.21  -0.18
  24   1     0.02  -0.05  -0.00     0.04   0.01   0.01     0.03   0.00  -0.03
  25   1     0.07  -0.04   0.05    -0.02  -0.01  -0.08    -0.03  -0.02  -0.12
  26   1     0.08  -0.05   0.07     0.07   0.03   0.02     0.13   0.03   0.05
                     16                     17                     18
                        a                      a                      a 
 Frequencies --   808.9848               857.4007              1505.4650
 Red. masses --    99.0000                99.0000                99.0000
 Frc consts  --    99.0000                99.0000                99.0000
 IR Inten    --    99.0000                99.0000                99.0000
 Raman Activ --     0.0000                 0.0000                 0.0000
 Depolar     --     0.0000                 0.0000                 0.0000
 Atom AN      X      Y      Z        X      Y      Z        X      Y      Z
   1   6    -0.04   0.02  -0.01    -0.03   0.07  -0.05    -0.09   0.14  -0.13
   2   6    -0.11   0.06  -0.12    -0.04   0.11  -0.08    -0.02   0.03  -0.03
   3   6     0.00   0.04   0.06     0.12  -0.19   0.03    -0.00  -0.01   0.00
   4   6     0.16  -0.05   0.10     0.09   0.02   0.10    -0.00  -0.02  -0.01
   5   6     0.14  -0.09  -0.05    -0.20   0.17   0.02     0.00   0.00  -0.01
   6   6    -0.04  -0.08  -0.07    -0.16   0.05   0.02     0.00   0.00   0.00
   7   6    -0.15   0.06   0.14     0.07  -0.12  -0.08     0.00   0.01   0.01
   8   6    -0.06   0.01   0.02     0.11  -0.02   0.03     0.00  -0.00  -0.00
   9   1    -0.05   0.02   0.18    -0.12   0.02   0.25     0.41   0.13  -0.10
  10   1     0.02  -0.03   0.08     0.07  -0.09   0.03     0.33  -0.42   0.46
  11   1     0.15  -0.11  -0.09     0.16  -0.14  -0.11    -0.37  -0.27   0.17
  12   1     0.04  -0.27  -0.08     0.11  -0.15  -0.10     0.01   0.00  -0.02
  13   1     0.07   0.08   0.24    -0.06   0.05   0.22    -0.01   0.01   0.03
  14   1    -0.12  -0.00   0.09    -0.08   0.20   0.08     0.02   0.01  -0.01
  15   1     0.08   0.02  -0.04     0.01  -0.10  -0.27    -0.01  -0.00   0.01
  16   1    -0.01   0.22   0.05    -0.08   0.16   0.09    -0.01   0.06   0.01
  17   1    -0.10  -0.09  -0.16     0.11  -0.01  -0.22     0.03   0.02   0.04
  18   1    -0.08  -0.02   0.19     0.06   0.02  -0.27    -0.01   0.00   0.01
  19   1    -0.03   0.16  -0.13     0.01  -0.21   0.15     0.00  -0.01   0.00
  20   1    -0.06   0.11  -0.11     0.10   0.07   0.06    -0.01  -0.01  -0.00
  21   1     0.06  -0.10  -0.03    -0.02  -0.05  -0.10     0.00  -0.00  -0.01
  22   1     0.20   0.28   0.03    -0.10  -0.10  -0.05    -0.02  -0.03   0.00
  23   1     0.02  -0.19  -0.25     0.05   0.00   0.12     0.00  -0.02  -0.03
  24   1     0.02  -0.01  -0.11     0.02   0.01   0.11    -0.00  -0.00   0.00
  25   1    -0.06  -0.04  -0.20     0.06   0.03   0.14    -0.00   0.01   0.01
  26   1     0.22   0.04   0.10    -0.14  -0.02  -0.07     0.01   0.00   0.00
                     19                     20                     21
                        a                      a                      a 
 Frequencies --  1506.0023              1508.1709              1508.9066
 Red. masses --    99.0000                99.0000                99.0000
 Frc consts  --    99.0000                99.0000                99.0000
 IR Inten    --    99.0000                99.0000                99.0000
 Raman Activ --     0.0000                 0.0000                 0.0000
 Depolar     --     0.0000                 0.0000                 0.0000
 Atom AN      X      Y      Z        X      Y      Z        X      Y      Z
   1   6    -0.00  -0.00  -0.00    -0.13  -0.14  -0.06     0.02   0.03   0.01
   2   6     0.00   0.01   0.01    -0.06  -0.09  -0.05     0.01   0.02   0.01
   3   6    -0.00  -0.01  -0.01     0.01  -0.03  -0.04     0.01   0.02   0.02
   4   6     0.01   0.03   0.02    -0.01  -0.00   0.00     0.01   0.02   0.00
   5   6    -0.01  -0.00   0.00     0.00  -0.00   0.00    -0.00  -0.01   0.00
   6   6     0.00   0.04   0.02    -0.00   0.00   0.00    -0.02  -0.04  -0.04
   7   6     0.03  -0.00  -0.04     0.01  -0.01   0.00     0.01  -0.11  -0.02
   8   6     0.15   0.04  -0.14     0.00  -0.04  -0.00     0.04  -0.20  -0.02
   9   1     0.01   0.00   0.01     0.39   0.18   0.44    -0.07  -0.03  -0.08
  10   1     0.00  -0.01  -0.00     0.11  -0.20  -0.22    -0.02   0.03   0.05
  11   1    -0.00   0.01   0.00     0.02   0.59   0.01    -0.01  -0.11  -0.00
  12   1     0.00  -0.04  -0.00     0.00   0.17  -0.00     0.00  -0.03  -0.00
  13   1    -0.02  -0.01  -0.04     0.10   0.04   0.13    -0.02  -0.01  -0.03
  14   1     0.00   0.03   0.00    -0.02   0.11   0.02    -0.00  -0.08  -0.00
  15   1     0.01   0.01   0.03     0.04   0.03   0.10    -0.03  -0.02  -0.07
  16   1     0.02  -0.09  -0.01     0.00  -0.00  -0.00     0.00  -0.04  -0.00
  17   1    -0.04  -0.03  -0.08     0.00  -0.00  -0.01    -0.02  -0.01  -0.03
  18   1     0.01   0.00  -0.00     0.00   0.00  -0.00     0.00  -0.00   0.00
  19   1     0.01   0.01   0.00    -0.00   0.00  -0.00    -0.00   0.00  -0.00
  20   1    -0.07  -0.07  -0.01    -0.00   0.00  -0.00     0.09   0.12   0.00
  21   1     0.05  -0.07  -0.07     0.00  -0.00  -0.00    -0.04   0.08   0.12
  22   1     0.00   0.02  -0.02    -0.01  -0.01  -0.00     0.07   0.12  -0.03
  23   1     0.01   0.03   0.05    -0.00  -0.01  -0.01    -0.05   0.09   0.10
  24   1    -0.48  -0.10   0.49    -0.04  -0.03  -0.05    -0.20  -0.15  -0.18
  25   1    -0.30   0.30  -0.15    -0.05   0.09   0.08    -0.23   0.44   0.36
  26   1     0.18  -0.35   0.24     0.06   0.12  -0.03     0.28   0.50  -0.10
                     22                     23                     24
                        a                      a                      a 
 Frequencies --   890.5891               920.9117               944.6229
 Red. masses --    99.0000                99.0000                99.0000
 Frc consts  --    99.0000                99.0000                99.0000
 IR Inten    --    99.0000                99.0000                99.0000
 Raman Activ --     0.0000                 0.0000                 0.0000
 Depolar     --     0.0000                 0.0000                 0.0000
 Atom AN      X      Y      Z        X      Y      Z        X      Y      Z
   1   6     0.03  -0.00  -0.05     0.17   0.09  -0.05     0.09  -0.05   0.11
   2   6     0.00   0.04   0.02     0.11   0.15   0.07     0.00   0.03  -0.03
   3   6    -0.04  -0.01   0.08    -0.08  -0.27  -0.19    -0.06   0.04  -0.19
   4   6    -0.22  -0.20  -0.05    -0.02   0.15   0.14     0.24   0.03   0.21
   5   6    -0.05   0.16  -0.21    -0.12   0.02   0.20    -0.09  -0.01   0.05
   6   6     0.26   0.37   0.11     0.10  -0.11  -0.19    -0.17   0.15  -0.11
   7   6    -0.01  -0.27   0.02    -0.01   0.08   0.03    -0.02  -0.16  -0.05
   8   6     0.04  -0.15   0.13    -0.14   0.05   0.04     0.14  -0.10   0.10
   9   1    -0.00   0.00   0.02    -0.14  -0.02   0.07     0.07  -0.04  -0.23
  10   1     0.02  -0.01  -0.00     0.16  -0.16  -0.27    -0.02   0.03  -0.13
  11   1     0.04  -0.02  -0.03    -0.12  -0.04   0.07    -0.23   0.13   0.17
  12   1     0.04   0.00  -0.02    -0.04   0.03   0.06    -0.25  -0.07   0.13
  13   1    -0.00   0.01   0.03    -0.06   0.02   0.07     0.21   0.05  -0.09
  14   1     0.00   0.04   0.02    -0.03  -0.06  -0.04    -0.18  -0.20   0.03
  15   1    -0.01  -0.01  -0.03    -0.04  -0.07  -0.04     0.21   0.08   0.03
  16   1    -0.12  -0.09   0.02     0.07   0.03  -0.01     0.08   0.27   0.04
  17   1    -0.05  -0.05  -0.01     0.07   0.06   0.01    -0.06  -0.07  -0.16
  18   1    -0.09  -0.01  -0.17     0.10   0.02  -0.06    -0.12  -0.05  -0.07
  19   1     0.01  -0.01  -0.02    -0.13  -0.20   0.07    -0.05  -0.05   0.02
  20   1    -0.05  -0.08   0.04    -0.05  -0.25   0.01    -0.06   0.08  -0.05
  21   1     0.04   0.19   0.23    -0.08   0.13   0.07    -0.04   0.02  -0.07
  22   1     0.10  -0.03   0.03     0.18  -0.08   0.15    -0.04  -0.01  -0.05
  23   1    -0.14  -0.02  -0.19    -0.10   0.08  -0.09    -0.01  -0.05  -0.03
  24   1     0.28   0.12   0.18    -0.04  -0.04  -0.18     0.15   0.07   0.18
  25   1    -0.18   0.06  -0.25    -0.05  -0.06  -0.18    -0.04   0.05  -0.00
  26   1     0.09   0.12   0.00     0.24   0.01   0.14    -0.06   0.04  -0.05
                     25                     26                     27
                        a                      a                      a 
 Frequencies --  1069.3135               990.2275               956.1203
 Red. masses --    99.0000                99.0000                99.0000
 Frc consts  --    99.0000                99.0000                99.0000
 IR Inten    --    99.0000                99.0000                99.0000
 Raman Activ --     0.0000                 0.0000                 0.0000
 Depolar     --     0.0000                 0.0000                 0.0000
 Atom AN      X      Y      Z        X      Y      Z        X      Y      Z
   1   6    -0.07   0.07   0.02     0.10  -0.09  -0.00     0.28   0.11  -0.12
   2   6     0.09  -0.09   0.00    -0.06   0.10  -0.00     0.07   0.16   0.12
   3   6     0.00   0.04  -0.15    -0.09   0.02   0.07    -0.27  -0.18   0.03
   4   6     0.03  -0.06   0.16    -0.14  -0.27  -0.00    -0.11  -0.03   0.02
   5   6    -0.02   0.11  -0.02     0.01   0.26  -0.16     0.18  -0.04  -0.17
   6   6     0.03   0.16  -0.06     0.17  -0.11   0.15     0.00   0.03   0.13
   7   6    -0.15  -0.24  -0.10     0.02   0.05   0.05    -0.03   0.00   0.03
   8   6     0.09   0.22   0.06    -0.11   0.18  -0.10     0.08  -0.02  -0.07
   9   1    -0.05   0.02   0.09     0.09  -0.03  -0.17    -0.17  -0.03   0.08
  10   1     0.01  -0.02   0.03    -0.02   0.04  -0.05     0.22  -0.21  -0.35
  11   1     0.04  -0.03  -0.03    -0.09   0.08   0.06    -0.12  -0.07   0.06
  12   1     0.10   0.08  -0.04    -0.15  -0.09   0.07    -0.05   0.04   0.07
  13   1    -0.11  -0.06  -0.03     0.20   0.08  -0.02    -0.10   0.02   0.09
  14   1     0.17  -0.07  -0.13    -0.18  -0.03   0.11    -0.09  -0.04   0.02
  15   1    -0.11   0.01   0.13     0.21   0.05  -0.10    -0.16  -0.07   0.05
  16   1     0.18   0.16  -0.07    -0.20  -0.00   0.10    -0.04  -0.04   0.01
  17   1    -0.31  -0.11   0.09     0.05  -0.07  -0.17    -0.07  -0.01   0.05
  18   1    -0.27  -0.10  -0.18     0.07   0.06  -0.17    -0.02   0.01   0.13
  19   1    -0.01  -0.03   0.02     0.07  -0.04   0.04     0.01   0.15  -0.13
  20   1    -0.03  -0.02  -0.01     0.11  -0.06   0.09    -0.06   0.19  -0.08
  21   1     0.16  -0.06   0.21     0.15  -0.12   0.13     0.11  -0.12   0.03
  22   1     0.04  -0.05   0.00     0.06  -0.01   0.05    -0.13   0.14  -0.12
  23   1     0.11  -0.19   0.04     0.09  -0.04   0.08     0.10  -0.09   0.06
  24   1    -0.18  -0.09  -0.16    -0.23  -0.10  -0.24    -0.00   0.02   0.11
  25   1     0.19  -0.07   0.18     0.12  -0.07   0.09     0.05   0.04   0.14
  26   1     0.08  -0.09   0.11     0.06  -0.08   0.07    -0.19  -0.01  -0.11
                     28                     29                     30
                        a                      a                      a 
 Frequencies --  1217.1399              1489.7624              1493.1640
 Red. masses --    99.0000                99.0000                99.0000
 Frc consts  --    99.0000                99.0000                99.0000
 IR Inten    --    99.0000                99.0000                99.0000
 Raman Activ --     0.0000                 0.0000                 0.0000
 Depolar     --     0.0000                 0.0000                 0.0000
 Atom AN      X      Y      Z        X      Y      Z        X      Y      Z
   1   6    -0.10   0.19  -0.15     0.00   0.01   0.00     0.00   0.00  -0.00
   2   6     0.14  -0.26   0.20     0.00  -0.03  -0.02     0.02   0.02   0.00
   3   6    -0.15   0.20  -0.11    -0.00  -0.01  -0.01    -0.05  -0.14  -0.10
   4   6     0.02  -0.13   0.06     0.00   0.06   0.02    -0.02  -0.08  -0.05
   5   6     0.02  -0.02  -0.03     0.04   0.13  -0.23     0.00  -0.01  -0.00
   6   6    -0.05   0.08   0.13     0.00  -0.04  -0.04    -0.02  -0.09  -0.05
   7   6     0.12  -0.10  -0.14     0.00   0.01   0.00    -0.05  -0.14  -0.09
   8   6    -0.08   0.04   0.09    -0.01   0.01  -0.00     0.01   0.03   0.01
   9   1    -0.12   0.05   0.24    -0.01  -0.01  -0.02    -0.01  -0.00  -0.01
  10   1     0.07  -0.08   0.04    -0.00   0.00   0.01    -0.00   0.01   0.02
  11   1     0.14  -0.14  -0.13     0.00  -0.02  -0.00    -0.01  -0.02   0.01
  12   1    -0.06   0.17   0.12    -0.01   0.07   0.01    -0.00  -0.08  -0.00
  13   1     0.04  -0.10  -0.23     0.02   0.01   0.06    -0.04  -0.02  -0.06
  14   1    -0.05  -0.15  -0.03    -0.03   0.06   0.02    -0.04   0.40   0.04
  15   1     0.18   0.12   0.06     0.04   0.02   0.05     0.19   0.10   0.35
  16   1    -0.10   0.04   0.08     0.04  -0.15  -0.03    -0.03   0.22   0.01
  17   1     0.21  -0.01  -0.21    -0.06  -0.04  -0.13     0.10   0.06   0.19
  18   1     0.21   0.09   0.11    -0.28   0.04   0.57     0.01  -0.00  -0.01
  19   1    -0.16  -0.05  -0.09     0.12  -0.55   0.30     0.00   0.01  -0.00
  20   1    -0.07   0.15  -0.06     0.08   0.12  -0.01     0.14   0.19  -0.00
  21   1    -0.02  -0.00  -0.06    -0.05   0.10   0.11    -0.07   0.13   0.19
  22   1    -0.06  -0.08  -0.05    -0.04  -0.03  -0.01     0.25   0.31  -0.02
  23   1     0.02   0.03   0.07     0.03  -0.04  -0.02    -0.09   0.24   0.31
  24   1    -0.01  -0.01  -0.08     0.00   0.01   0.02     0.00   0.01   0.04
  25   1    -0.02  -0.04  -0.07     0.01  -0.02  -0.01     0.02  -0.06  -0.08
  26   1     0.11   0.01   0.09     0.00  -0.03   0.02    -0.06  -0.09   0.02
                     31                     32                     33
                        a                      a                      a 
 Frequencies --  1502.3405              1497.7101              1161.0574
 Red. masses --    99.0000                99.0000                99.0000
 Frc consts  --    99.0000                99.0000                99.0000
 IR Inten    --    99.0000                99.0000                99.0000
 Raman Activ --     0.0000                 0.0000                 0.0000
 Depolar     --     0.0000                 0.0000                 0.0000
 Atom AN      X      Y      Z        X      Y      Z        X      Y      Z
   1   6    -0.01   0.00   0.01     0.02   0.05   0.03     0.02  -0.07   0.03
   2   6    -0.04  -0.12  -0.08    -0.02  -0.14  -0.13    -0.04   0.12  -0.05
   3   6     0.04   0.10   0.07    -0.00  -0.10  -0.10     0.08  -0.15   0.06
   4   6     0.00  -0.03  -0.03    -0.00   0.09   0.09    -0.12   0.20  -0.10
   5   6    -0.01  -0.02   0.03    -0.01  -0.03   0.05     0.11  -0.24   0.12
   6   6    -0.03  -0.15  -0.08     0.01   0.03   0.02    -0.07   0.39  -0.04
   7   6    -0.02  -0.02  -0.03     0.00   0.02   0.00     0.00  -0.39  -0.09
   8   6     0.02   0.05  -0.02    -0.01  -0.02   0.01    -0.01   0.17   0.03
   9   1     0.00  -0.00  -0.03    -0.10  -0.05  -0.16     0.05  -0.01  -0.08
  10   1     0.00  -0.01  -0.02    -0.03   0.04   0.06    -0.03   0.03   0.01
  11   1     0.02  -0.02  -0.01     0.01  -0.19  -0.01    -0.03   0.04   0.03
  12   1    -0.02   0.37   0.03    -0.07   0.44   0.06    -0.04  -0.07  -0.00
  13   1     0.18   0.09   0.31     0.19   0.11   0.40     0.08   0.06   0.04
  14   1    -0.00  -0.35  -0.02    -0.04   0.31   0.04    -0.08   0.07   0.07
  15   1    -0.16  -0.09  -0.29     0.11   0.07   0.28     0.03  -0.06  -0.14
  16   1    -0.03   0.11   0.02     0.06  -0.28  -0.03    -0.12  -0.15   0.04
  17   1     0.04   0.04   0.10    -0.12  -0.09  -0.26     0.18   0.13   0.06
  18   1     0.02  -0.01  -0.07     0.07  -0.01  -0.13     0.04  -0.01   0.20
  19   1    -0.02   0.06  -0.04    -0.02   0.13  -0.06    -0.00   0.09  -0.04
  20   1     0.24   0.30   0.00    -0.05  -0.05  -0.01    -0.13   0.14  -0.10
  21   1    -0.11   0.22   0.29     0.02  -0.04  -0.06    -0.08   0.15  -0.05
  22   1     0.06   0.06   0.00    -0.02  -0.03   0.01     0.08  -0.15   0.04
  23   1    -0.01   0.05   0.07     0.02  -0.03  -0.01     0.09  -0.16   0.05
  24   1    -0.04   0.02   0.13     0.01  -0.00  -0.04    -0.13  -0.06  -0.15
  25   1    -0.00  -0.04  -0.10    -0.00   0.01   0.02     0.11  -0.07   0.07
  26   1    -0.03  -0.17   0.06     0.01   0.05  -0.02     0.10  -0.07   0.10
                     34                     35                     36
                        a                      a                      a 
 Frequencies --  1500.6047              1504.5374              1230.3939
 Red. masses --    99.0000                99.0000                99.0000
 Frc consts  --    99.0000                99.0000                99.0000
 IR Inten    --    99.0000                99.0000                99.0000
 Raman Activ --     0.0000                 0.0000                 0.0000
 Depolar     --     0.0000                 0.0000                 0.0000
 Atom AN      X      Y      Z        X      Y      Z        X      Y      Z
   1   6     0.01  -0.00   0.00     0.02   0.01   0.03    -0.10   0.06  -0.12
   2   6     0.02   0.04   0.04    -0.00  -0.07  -0.07     0.14  -0.06   0.15
   3   6    -0.01  -0.06  -0.06    -0.03  -0.04  -0.02    -0.02  -0.02  -0.14
   4   6    -0.01  -0.02  -0.01    -0.03  -0.18  -0.13     0.02   0.09   0.01
   5   6    -0.01  -0.03   0.04     0.01   0.03  -0.06    -0.01  -0.06   0.02
   6   6    -0.01  -0.14  -0.05     0.02   0.08   0.05     0.09   0.02  -0.14
   7   6     0.03   0.18   0.07     0.04   0.04   0.05    -0.26  -0.03   0.22
   8   6     0.01  -0.01  -0.03     0.02  -0.02  -0.03     0.19   0.02  -0.18
   9   1    -0.03  -0.01   0.00    -0.10  -0.04  -0.07    -0.03   0.04   0.12
  10   1    -0.02   0.02  -0.00    -0.05   0.07  -0.02     0.01  -0.02   0.08
  11   1     0.00  -0.00   0.00     0.04  -0.07  -0.02     0.12  -0.07  -0.11
  12   1     0.02  -0.13  -0.02    -0.03   0.23   0.03    -0.11   0.09   0.12
  13   1    -0.07  -0.04  -0.12     0.10   0.05   0.20     0.05  -0.03  -0.12
  14   1    -0.05   0.20   0.04     0.02   0.08  -0.01    -0.16  -0.09   0.05
  15   1     0.09   0.05   0.18     0.05   0.02   0.06     0.06   0.02   0.01
  16   1    -0.00   0.04   0.00    -0.09   0.51   0.04    -0.22  -0.06   0.15
  17   1     0.04   0.02   0.02     0.23   0.15   0.44     0.04   0.03  -0.00
  18   1     0.04  -0.01  -0.11    -0.06   0.01   0.12    -0.07  -0.04  -0.00
  19   1    -0.03   0.10  -0.06     0.02  -0.12   0.05     0.24   0.11   0.11
  20   1     0.21   0.32  -0.02    -0.13  -0.17   0.00     0.11  -0.21   0.12
  21   1    -0.12   0.22   0.28     0.06  -0.12  -0.17    -0.12   0.14  -0.07
  22   1    -0.28  -0.39   0.04    -0.11  -0.12  -0.00     0.20   0.10   0.14
  23   1     0.11  -0.29  -0.36    -0.00  -0.08  -0.16    -0.10  -0.09  -0.20
  24   1    -0.05  -0.00   0.06    -0.08  -0.03   0.01    -0.07  -0.01   0.09
  25   1    -0.03   0.06   0.04    -0.06   0.11   0.07     0.11   0.05   0.21
  26   1     0.07  -0.00   0.03     0.08   0.06   0.01    -0.20  -0.06  -0.13
                     37                     38                     39
                        a                      a                      a 
 Frequencies --  1048.8974              1154.9018              1084.5199
 Red. masses --    99.0000                99.0000                99.0000
 Frc consts  --    99.0000                99.0000                99.0000
 IR Inten    --    99.0000                99.0000                99.0000
 Raman Activ --     0.0000                 0.0000                 0.0000
 Depolar     --     0.0000                 0.0000                 0.0000
 Atom AN      X      Y      Z        X      Y      Z        X      Y      Z
   1   6    -0.14   0.01   0.14    -0.11  -0.12  -0.04    -0.06   0.24   0.28
   2   6     0.09  -0.04  -0.14     0.18   0.25   0.12     0.14  -0.23  -0.35
   3   6     0.24  -0.14  -0.29    -0.12  -0.31  -0.26     0.10   0.07  -0.00
   4   6    -0.20   0.15   0.24    -0.06   0.14   0.28     0.08   0.08  -0.02
   5   6    -0.10  -0.04  -0.05     0.11  -0.03  -0.26    -0.10  -0.10  -0.19
   6   6     0.24  -0.01   0.09    -0.12  -0.03   0.21    -0.01   0.07   0.19
   7   6    -0.00   0.07   0.19     0.12   0.03  -0.11     0.25  -0.04   0.14
   8   6    -0.02  -0.05  -0.16    -0.07  -0.01   0.07    -0.20  -0.03  -0.14
   9   1     0.01   0.01   0.01     0.13   0.01  -0.05    -0.20   0.01   0.14
  10   1    -0.07   0.05   0.09    -0.10   0.09   0.16     0.06  -0.08  -0.13
  11   1    -0.02   0.03   0.03     0.11   0.03  -0.08    -0.19   0.00   0.16
  12   1     0.02  -0.04  -0.03     0.12   0.07  -0.01    -0.04  -0.08  -0.05
  13   1     0.05  -0.01  -0.04     0.11   0.07  -0.02    -0.02  -0.07  -0.05
  14   1     0.08  -0.03  -0.09     0.01  -0.09  -0.09    -0.10  -0.01   0.07
  15   1     0.13  -0.03  -0.14    -0.02  -0.07  -0.04    -0.10  -0.01   0.06
  16   1    -0.10  -0.00   0.09    -0.07   0.06   0.10    -0.11   0.00   0.07
  17   1     0.02   0.06   0.05    -0.16  -0.01   0.09    -0.05   0.01   0.04
  18   1     0.10   0.05   0.07    -0.08  -0.02   0.05    -0.18  -0.07  -0.03
  19   1    -0.35  -0.14  -0.16     0.09   0.14  -0.08     0.11   0.11  -0.02
  20   1    -0.18   0.04  -0.14     0.20   0.05   0.16     0.15   0.02   0.14
  21   1     0.13  -0.01   0.22    -0.06  -0.05  -0.16    -0.06   0.03  -0.11
  22   1    -0.07   0.19  -0.07    -0.02  -0.12   0.01     0.10  -0.11   0.10
  23   1     0.08  -0.08   0.02    -0.05   0.12   0.02     0.04   0.03   0.08
  24   1    -0.01   0.01   0.06     0.03   0.00  -0.04    -0.05  -0.02  -0.08
  25   1    -0.01   0.03   0.05    -0.05  -0.02  -0.09    -0.07  -0.02  -0.10
  26   1    -0.16  -0.00  -0.12     0.09   0.02   0.06     0.00  -0.00  -0.01
                     40                     41                     42
                        a                      a                      a 
 Frequencies --  1113.4618              1095.5670              1286.6764
 Red. masses --    99.0000                99.0000                99.0000
 Frc consts  --    99.0000                99.0000                99.0000
 IR Inten    --    99.0000                99.0000                99.0000
 Raman Activ --     0.0000                 0.0000                 0.0000
 Depolar     --     0.0000                 0.0000                 0.0000
 Atom AN      X      Y      Z        X      Y      Z        X      Y      Z
   1   6    -0.18   0.06   0.20    -0.07   0.13   0.22     0.05  -0.04   0.06
   2   6     0.40   0.14  -0.16     0.14  -0.10  -0.26     0.04  -0.11   0.10
   3   6    -0.39  -0.15   0.13     0.06  -0.04  -0.00    -0.10   0.05  -0.06
   4   6     0.00  -0.16  -0.12    -0.15  -0.02   0.00    -0.07   0.11  -0.05
   5   6     0.05   0.09   0.13     0.10   0.01   0.01    -0.02  -0.04  -0.01
   6   6    -0.03   0.02  -0.15     0.02  -0.14   0.02     0.04   0.02  -0.04
   7   6     0.04  -0.01   0.11    -0.35   0.09  -0.37    -0.00   0.01   0.01
   8   6    -0.02  -0.04  -0.08     0.26   0.10   0.32    -0.03  -0.01   0.03
   9   1     0.00   0.03   0.05    -0.10   0.01   0.07     0.03  -0.02  -0.06
  10   1    -0.07   0.07   0.12     0.01  -0.02  -0.04     0.01  -0.01  -0.02
  11   1    -0.01   0.05   0.03    -0.12   0.03   0.11    -0.05   0.02   0.05
  12   1     0.29   0.07  -0.14     0.01  -0.07  -0.06     0.41   0.15  -0.19
  13   1     0.28   0.07  -0.14     0.08  -0.01  -0.05    -0.34  -0.11   0.12
  14   1    -0.14  -0.05   0.05    -0.08   0.01   0.05    -0.35  -0.11   0.16
  15   1    -0.15  -0.05   0.05     0.01  -0.02  -0.05     0.49   0.12  -0.21
  16   1     0.14  -0.00  -0.12    -0.14  -0.10   0.07     0.09  -0.02  -0.08
  17   1     0.09  -0.03  -0.10     0.00   0.01   0.04    -0.04   0.04   0.09
  18   1     0.07   0.03  -0.03     0.13   0.05   0.08    -0.06  -0.03  -0.03
  19   1     0.00  -0.05   0.06     0.05   0.03   0.01     0.07   0.06   0.02
  20   1    -0.13   0.03  -0.12     0.07  -0.07   0.06     0.03  -0.07   0.03
  21   1     0.01   0.01   0.03     0.04  -0.07   0.00     0.00   0.01  -0.02
  22   1     0.04   0.03   0.03    -0.16   0.04  -0.14    -0.08   0.06  -0.06
  23   1     0.06  -0.06   0.03    -0.18   0.10  -0.14     0.08  -0.06   0.07
  24   1     0.00   0.00   0.02     0.06   0.01   0.05     0.01   0.00  -0.01
  25   1    -0.02   0.01   0.00     0.09   0.00   0.08    -0.02  -0.01  -0.03
  26   1    -0.07  -0.00  -0.05     0.14   0.01   0.12     0.02   0.01   0.02
                     43                     44                     45
                        a                      a                      a 
 Frequencies --  1258.6856              1147.8866              1278.1076
 Red. masses --    99.0000                99.0000                99.0000
 Frc consts  --    99.0000                99.0000                99.0000
 IR Inten    --    99.0000                99.0000                99.0000
 Raman Activ --     0.0000                 0.0000                 0.0000
 Depolar     --     0.0000                 0.0000                 0.0000
 Atom AN      X      Y      Z        X      Y      Z        X      Y      Z
   1   6    -0.09   0.03  -0.11    -0.00  -0.04  -0.03    -0.00  -0.17   0.03
   2   6     0.11   0.02   0.07     0.03   0.10   0.06     0.15   0.13  -0.03
   3   6     0.13  -0.09  -0.02    -0.15  -0.01   0.11     0.07   0.15  -0.23
   4   6    -0.01   0.14  -0.14     0.32   0.19  -0.19     0.15  -0.13  -0.03
   5   6    -0.03  -0.03   0.16    -0.35  -0.31  -0.18    -0.07   0.04   0.08
   6   6     0.04  -0.05  -0.15     0.25  -0.02   0.27     0.06  -0.01   0.01
   7   6     0.09   0.14  -0.10    -0.13   0.01  -0.07     0.03  -0.04  -0.01
   8   6    -0.12  -0.09   0.11     0.06   0.08   0.06    -0.01   0.03   0.02
   9   1    -0.01   0.03   0.09     0.04   0.00  -0.03     0.09  -0.02  -0.09
  10   1    -0.01  -0.00   0.08    -0.02   0.02   0.03    -0.08   0.08   0.07
  11   1     0.09  -0.05  -0.09     0.03   0.01  -0.02    -0.02   0.08   0.03
  12   1    -0.24   0.00   0.17     0.04   0.03  -0.00     0.07   0.01  -0.03
  13   1     0.10   0.01  -0.09     0.06   0.04  -0.00    -0.41  -0.05   0.25
  14   1    -0.24   0.01   0.15    -0.10   0.01   0.06    -0.21  -0.14   0.06
  15   1    -0.05  -0.05  -0.03    -0.10  -0.01   0.07    -0.35  -0.00   0.29
  16   1    -0.12  -0.07   0.05     0.10   0.01  -0.06    -0.34  -0.01   0.22
  17   1    -0.05   0.06   0.14     0.24   0.08  -0.13     0.01  -0.05  -0.08
  18   1    -0.28  -0.14  -0.12    -0.21  -0.11  -0.03     0.12   0.05   0.02
  19   1     0.18   0.05   0.14    -0.23  -0.08  -0.14     0.00  -0.05   0.06
  20   1    -0.12  -0.01  -0.12     0.09  -0.08   0.12    -0.12   0.06  -0.10
  21   1     0.21  -0.15   0.20     0.07  -0.01   0.09    -0.02   0.03  -0.03
  22   1    -0.17   0.04  -0.12    -0.08   0.08  -0.08    -0.05   0.02  -0.05
  23   1     0.21  -0.05   0.21    -0.05   0.01  -0.05    -0.01   0.01  -0.00
  24   1     0.09   0.03  -0.01    -0.03  -0.01  -0.03    -0.01  -0.01  -0.03
  25   1    -0.10  -0.01  -0.15     0.06  -0.01   0.05     0.00  -0.01  -0.01
  26   1     0.10   0.06   0.05     0.04  -0.01   0.04     0.02  -0.00   0.02
                     46                     47                     48
                        a                      a                      a 
 Frequencies --  1281.9418              1311.0788              1292.0095
 Red. masses --    99.0000                99.0000                99.0000
 Frc consts  --    99.0000                99.0000                99.0000
 IR Inten    --    99.0000                99.0000                99.0000
 Raman Activ --     0.0000                 0.0000                 0.0000
 Depolar     --     0.0000                 0.0000                 0.0000
 Atom AN      X      Y      Z        X      Y      Z        X      Y      Z
   1   6    -0.04  -0.01  -0.05    -0.02  -0.03  -0.02    -0.05   0.00  -0.06
   2   6     0.08  -0.00   0.04     0.09   0.03  -0.02     0.09   0.03  -0.00
   3   6     0.12  -0.03   0.03     0.07   0.03  -0.00     0.13  -0.06   0.07
   4   6     0.01   0.03  -0.13    -0.02  -0.07  -0.04     0.04  -0.06  -0.10
   5   6    -0.03   0.06   0.01     0.05  -0.07  -0.04    -0.01   0.13  -0.07
   6   6    -0.10  -0.05   0.18    -0.16   0.21  -0.07     0.11  -0.01   0.03
   7   6     0.09  -0.02  -0.04    -0.20   0.18  -0.14     0.02  -0.14   0.12
   8   6     0.08   0.04  -0.09     0.00  -0.14  -0.03    -0.04   0.07   0.04
   9   1     0.01   0.01   0.03     0.01   0.00   0.01     0.00   0.02   0.05
  10   1    -0.01   0.01   0.05    -0.02   0.02   0.05    -0.01   0.01   0.06
  11   1     0.03  -0.01  -0.03     0.00   0.01  -0.01     0.04  -0.01  -0.04
  12   1    -0.09   0.01   0.07    -0.10  -0.01   0.06    -0.20  -0.02   0.12
  13   1    -0.05  -0.02   0.00    -0.10  -0.02   0.06     0.03   0.00  -0.02
  14   1    -0.30  -0.01   0.19    -0.14  -0.02   0.09    -0.21   0.03   0.16
  15   1     0.05  -0.01  -0.06    -0.07  -0.01   0.04    -0.06  -0.05  -0.02
  16   1     0.14  -0.05  -0.12     0.09   0.03  -0.07     0.18   0.01  -0.13
  17   1    -0.22  -0.03   0.16    -0.03  -0.02   0.03    -0.35  -0.09   0.20
  18   1     0.00   0.01  -0.02     0.21   0.09   0.16     0.20   0.11  -0.00
  19   1    -0.14  -0.08  -0.04    -0.22  -0.08  -0.13    -0.18  -0.08  -0.08
  20   1    -0.17   0.25  -0.16     0.26  -0.17   0.26     0.09  -0.09   0.08
  21   1     0.14  -0.19   0.06     0.15  -0.11   0.12    -0.29   0.26  -0.25
  22   1     0.24  -0.21   0.20     0.25  -0.17   0.22    -0.25   0.20  -0.21
  23   1    -0.33   0.27  -0.24     0.28  -0.18   0.22     0.06  -0.10   0.02
  24   1    -0.03  -0.01  -0.00     0.11   0.05   0.13    -0.06  -0.02  -0.06
  25   1     0.06   0.01   0.08    -0.03   0.03   0.02     0.01  -0.03  -0.03
  26   1    -0.08  -0.03  -0.05     0.01   0.04  -0.03     0.04  -0.02   0.05
                     49                     50                     51
                        a                      a                      a 
 Frequencies --  1363.7040              1350.2919              1374.5171
 Red. masses --    99.0000                99.0000                99.0000
 Frc consts  --    99.0000                99.0000                99.0000
 IR Inten    --    99.0000                99.0000                99.0000
 Raman Activ --     0.0000                 0.0000                 0.0000
 Depolar     --     0.0000                 0.0000                 0.0000
 Atom AN      X      Y      Z        X      Y      Z        X      Y      Z
   1   6     0.01  -0.00   0.00    -0.06  -0.09  -0.05     0.01   0.01   0.01
   2   6     0.01  -0.01  -0.00     0.33   0.05  -0.18    -0.06  -0.00   0.04
   3   6     0.01   0.03  -0.02    -0.03   0.05   0.07     0.04   0.00  -0.04
   4   6    -0.10  -0.01  -0.09    -0.29  -0.03   0.18     0.02   0.00  -0.02
   5   6     0.48   0.17   0.19     0.05  -0.04  -0.07     0.03  -0.08   0.04
   6   6    -0.11  -0.06   0.01    -0.02  -0.02  -0.02    -0.29   0.20  -0.27
   7   6    -0.00   0.00   0.03     0.06  -0.05   0.06     0.27  -0.16   0.23
   8   6     0.01  -0.00  -0.01     0.00   0.03   0.00    -0.02   0.08  -0.00
   9   1    -0.00  -0.00  -0.00     0.02   0.01   0.07     0.00  -0.00  -0.02
  10   1    -0.00   0.00   0.00    -0.07   0.07   0.13     0.01  -0.01  -0.02
  11   1    -0.01   0.00   0.01    -0.02   0.06   0.00     0.01  -0.01  -0.00
  12   1     0.02   0.01  -0.01    -0.34  -0.05   0.20     0.06   0.01  -0.03
  13   1    -0.03  -0.01   0.01    -0.34  -0.06   0.20     0.05   0.01  -0.03
  14   1    -0.04  -0.01   0.02     0.05  -0.01  -0.02    -0.06   0.00   0.03
  15   1    -0.01   0.01   0.03     0.04   0.01  -0.05    -0.05  -0.00   0.06
  16   1    -0.15  -0.10   0.06     0.31   0.07  -0.19    -0.04  -0.04   0.02
  17   1     0.13   0.04  -0.06     0.32   0.08  -0.18     0.01  -0.00  -0.01
  18   1    -0.45  -0.20  -0.18    -0.09  -0.05  -0.02     0.11   0.04   0.10
  19   1    -0.44  -0.18  -0.21     0.13   0.10   0.01    -0.06  -0.01  -0.04
  20   1     0.10  -0.05   0.09     0.03  -0.01   0.02     0.26  -0.16   0.23
  21   1    -0.11   0.02  -0.15     0.00  -0.00   0.01     0.26  -0.19   0.28
  22   1    -0.00   0.03  -0.00    -0.07   0.05  -0.06    -0.24   0.14  -0.19
  23   1    -0.02   0.02  -0.01    -0.08   0.05  -0.06    -0.23   0.15  -0.21
  24   1    -0.01  -0.00   0.01    -0.03  -0.01  -0.03    -0.06  -0.03  -0.07
  25   1    -0.01   0.01   0.00     0.00  -0.01  -0.01     0.02  -0.03  -0.05
  26   1    -0.01  -0.00  -0.01    -0.01  -0.01   0.00    -0.04  -0.04   0.01
                     52                     53                     54
                        a                      a                      a 
 Frequencies --  1378.3374              1416.7262              1416.9487
 Red. masses --    99.0000                99.0000                99.0000
 Frc consts  --    99.0000                99.0000                99.0000
 IR Inten    --    99.0000                99.0000                99.0000
 Raman Activ --     0.0000                 0.0000                 0.0000
 Depolar     --     0.0000                 0.0000                 0.0000
 Atom AN      X      Y      Z        X      Y      Z        X      Y      Z
   1   6     0.05   0.03  -0.01    -0.27   0.11   0.31    -0.05   0.02   0.05
   2   6    -0.24  -0.02   0.16     0.07   0.02  -0.04     0.01   0.00  -0.01
   3   6     0.36   0.06  -0.20     0.00   0.02   0.01    -0.00   0.00   0.01
   4   6    -0.31  -0.08   0.17    -0.03  -0.01   0.01     0.00  -0.01  -0.01
   5   6     0.03   0.00  -0.07     0.01   0.00  -0.00     0.00  -0.01  -0.01
   6   6     0.04  -0.02   0.04     0.00  -0.01   0.00     0.01   0.01   0.01
   7   6    -0.02   0.00  -0.01     0.01  -0.01   0.01    -0.05   0.04  -0.04
   8   6     0.01   0.00   0.01    -0.05  -0.00  -0.05     0.30   0.02   0.31
   9   1    -0.02  -0.01  -0.03     0.29   0.04  -0.41     0.05   0.01  -0.07
  10   1     0.03  -0.02  -0.04     0.15  -0.28  -0.38     0.03  -0.05  -0.07
  11   1    -0.00  -0.04   0.00     0.43  -0.14  -0.23     0.07  -0.02  -0.04
  12   1     0.21   0.02  -0.11    -0.06  -0.06   0.03    -0.01  -0.01   0.01
  13   1     0.19   0.04  -0.13    -0.09  -0.03  -0.00    -0.02  -0.00   0.00
  14   1    -0.32  -0.05   0.17    -0.01   0.01   0.01    -0.00  -0.00   0.00
  15   1    -0.31  -0.05   0.17    -0.01   0.00   0.01     0.00   0.00  -0.00
  16   1     0.27   0.09  -0.17     0.03   0.01  -0.02    -0.00   0.01  -0.00
  17   1     0.25   0.06  -0.12     0.03   0.01  -0.02     0.00   0.00   0.01
  18   1    -0.04  -0.01  -0.00    -0.01  -0.00  -0.01     0.00   0.00   0.02
  19   1     0.10   0.05   0.02     0.00   0.01  -0.00    -0.01  -0.01  -0.00
  20   1    -0.02  -0.01  -0.01    -0.00   0.00  -0.00     0.01   0.01   0.01
  21   1    -0.04   0.02  -0.07    -0.01   0.00  -0.00     0.00   0.01   0.01
  22   1     0.01   0.01   0.00    -0.00   0.01  -0.01     0.02  -0.08   0.04
  23   1     0.01  -0.00   0.02    -0.01   0.01   0.00     0.06  -0.06   0.00
  24   1    -0.00  -0.00  -0.00     0.05   0.04   0.06    -0.28  -0.24  -0.34
  25   1    -0.00   0.00  -0.00     0.04  -0.01   0.08    -0.24   0.09  -0.43
  26   1    -0.00   0.00  -0.00     0.08  -0.01   0.04    -0.45   0.05  -0.23
                     55                     56                     57
                        a                      a                      a 
 Frequencies --  2958.5226              2956.4023              2954.1038
 Red. masses --    99.0000                99.0000                99.0000
 Frc consts  --    99.0000                99.0000                99.0000
 IR Inten    --    99.0000                99.0000                99.0000
 Raman Activ --     0.0000                 0.0000                 0.0000
 Depolar     --     0.0000                 0.0000                 0.0000
 Atom AN      X      Y      Z        X      Y      Z        X      Y      Z
   1   6    -0.01   0.01  -0.01    -0.00   0.00  -0.00    -0.00   0.00  -0.00
   2   6     0.10  -0.13   0.14     0.04  -0.06   0.05     0.02  -0.04   0.02
   3   6    -0.04   0.07  -0.04    -0.04   0.08  -0.04    -0.05   0.08  -0.06
   4   6    -0.07   0.03  -0.10     0.03  -0.02   0.05     0.12  -0.06   0.16
   5   6    -0.04   0.04   0.04     0.02  -0.05   0.01     0.01   0.03  -0.05
   6   6    -0.05  -0.03   0.03     0.16   0.09  -0.09    -0.08  -0.04   0.05
   7   6     0.03  -0.01  -0.04    -0.06  -0.00   0.07     0.03   0.01  -0.03
   8   6    -0.00   0.00   0.00     0.00  -0.01  -0.00    -0.00   0.00   0.00
   9   1     0.01  -0.04   0.00     0.01  -0.02   0.00     0.00  -0.01   0.00
  10   1    -0.00   0.00  -0.00    -0.00   0.00  -0.00    -0.00   0.00  -0.00
  11   1     0.02   0.00   0.05     0.01   0.00   0.02     0.00   0.00   0.01
  12   1    -0.24   0.02  -0.43    -0.09   0.00  -0.16    -0.04  -0.00  -0.07
  13   1    -0.12   0.46  -0.06    -0.06   0.24  -0.03    -0.04   0.15  -0.02
  14   1     0.06   0.00   0.11     0.06   0.00   0.12     0.11  -0.00   0.21
  15   1     0.07  -0.28   0.04     0.08  -0.31   0.05     0.08  -0.30   0.04
  16   1     0.23   0.00   0.37    -0.10  -0.00  -0.17    -0.35  -0.01  -0.57
  17   1     0.02  -0.08   0.00    -0.02   0.06  -0.01    -0.07   0.25  -0.03
  18   1     0.02  -0.07   0.02    -0.07   0.20  -0.04     0.07  -0.18   0.03
  19   1     0.12  -0.08  -0.18     0.01  -0.01  -0.01    -0.11   0.08   0.16
  20   1     0.03  -0.03  -0.05    -0.10   0.10   0.18     0.05  -0.06  -0.10
  21   1     0.16   0.14  -0.05    -0.50  -0.45   0.16     0.23   0.21  -0.07
  22   1    -0.07   0.06   0.13     0.10  -0.10  -0.20    -0.03   0.04   0.07
  23   1    -0.04  -0.05   0.02     0.12   0.12  -0.05    -0.07  -0.07   0.03
  24   1     0.00  -0.01   0.00    -0.00   0.01  -0.00     0.00  -0.00   0.00
  25   1     0.00   0.00  -0.00    -0.00  -0.00  -0.00     0.00   0.00   0.00
  26   1     0.01  -0.01  -0.01    -0.01   0.01   0.02     0.00  -0.00  -0.01
                     58                     59                     60
                        a                      a                      a 
 Frequencies --  2954.2935              2967.5023              2970.3228
 Red. masses --    99.0000                99.0000                99.0000
 Frc consts  --    99.0000                99.0000                99.0000
 IR Inten    --    99.0000                99.0000                99.0000
 Raman Activ --     0.0000                 0.0000                 0.0000
 Depolar     --     0.0000                 0.0000                 0.0000
 Atom AN      X      Y      Z        X      Y      Z        X      Y      Z
   1   6     0.00  -0.00   0.00    -0.00   0.01  -0.01    -0.01   0.02  -0.01
   2   6    -0.01   0.01  -0.01     0.04  -0.04   0.05     0.07  -0.08   0.09
   3   6     0.01  -0.03   0.01     0.02  -0.06   0.02     0.06  -0.16   0.05
   4   6     0.03  -0.04   0.04    -0.01   0.02  -0.01     0.03   0.02   0.04
   5   6    -0.14   0.21   0.11     0.00   0.06  -0.07     0.02   0.01  -0.05
   6   6     0.05   0.01  -0.05    -0.03  -0.04  -0.00     0.05   0.05  -0.01
   7   6     0.00  -0.01  -0.01    -0.13   0.03   0.18     0.06  -0.02  -0.09
   8   6    -0.00  -0.00   0.00     0.02  -0.00  -0.02    -0.01   0.00   0.01
   9   1    -0.00   0.01  -0.00     0.01  -0.03   0.00     0.02  -0.06   0.01
  10   1     0.00   0.00   0.00    -0.00   0.00  -0.00    -0.01  -0.00  -0.00
  11   1    -0.00  -0.00  -0.00     0.01  -0.00   0.02     0.02   0.00   0.04
  12   1     0.03  -0.00   0.05    -0.09   0.01  -0.16    -0.18   0.01  -0.31
  13   1     0.01  -0.05   0.01    -0.04   0.14  -0.02    -0.07   0.25  -0.03
  14   1    -0.00  -0.00  -0.00    -0.02  -0.01  -0.03    -0.03  -0.02  -0.06
  15   1    -0.02   0.09  -0.02    -0.06   0.22  -0.04    -0.16   0.60  -0.10
  16   1    -0.06  -0.01  -0.11     0.02   0.00   0.04    -0.12   0.01  -0.20
  17   1    -0.05   0.17  -0.03     0.02  -0.06   0.01     0.04  -0.10   0.03
  18   1     0.19  -0.56   0.14     0.12  -0.33   0.06     0.03  -0.08   0.01
  19   1     0.32  -0.20  -0.52    -0.13   0.10   0.19    -0.11   0.08   0.17
  20   1    -0.09   0.07   0.16    -0.05   0.03   0.08     0.03  -0.01  -0.03
  21   1    -0.11  -0.10   0.03     0.15   0.13  -0.05    -0.19  -0.16   0.06
  22   1    -0.02   0.01   0.04     0.30  -0.27  -0.59    -0.16   0.14   0.30
  23   1     0.02   0.02  -0.01     0.15   0.15  -0.05    -0.05  -0.05   0.01
  24   1    -0.00   0.00  -0.00    -0.00   0.01  -0.01     0.00  -0.01   0.00
  25   1     0.00   0.00  -0.00    -0.04  -0.04   0.01     0.02   0.02  -0.01
  26   1     0.00  -0.00  -0.00    -0.03   0.03   0.06     0.01  -0.01  -0.03
                     61                     62                     63
                        a                      a                      a 
 Frequencies --  3028.9220              2995.3481              3027.9310
 Red. masses --    99.0000                99.0000                99.0000
 Frc consts  --    99.0000                99.0000                99.0000
 IR Inten    --    99.0000                99.0000                99.0000
 Raman Activ --     0.0000                 0.0000                 0.0000
 Depolar     --     0.0000                 0.0000                 0.0000
 Atom AN      X      Y      Z        X      Y      Z        X      Y      Z
   1   6     0.14  -0.16   0.18     0.01   0.02   0.01     0.04  -0.03   0.05
   2   6     0.02  -0.03   0.03    -0.01  -0.03  -0.02     0.00  -0.00   0.01
   3   6     0.01  -0.01   0.01    -0.03  -0.05  -0.07     0.00  -0.00   0.00
   4   6     0.00  -0.00   0.00     0.01  -0.13  -0.02    -0.00   0.00  -0.00
   5   6    -0.00  -0.00   0.00     0.03  -0.05  -0.02     0.00  -0.00  -0.00
   6   6    -0.00   0.00   0.00     0.03  -0.08  -0.09     0.01   0.00  -0.01
   7   6    -0.01  -0.00   0.01    -0.04  -0.08  -0.02     0.04   0.01  -0.03
   8   6    -0.05   0.00   0.05    -0.00   0.03   0.00     0.20   0.04  -0.19
   9   1    -0.16   0.58  -0.08     0.01  -0.04   0.01    -0.03   0.13  -0.02
  10   1     0.01  -0.04   0.03    -0.03  -0.02   0.00    -0.02  -0.03   0.01
  11   1    -0.33   0.02  -0.60    -0.02   0.00  -0.04    -0.09   0.01  -0.16
  12   1    -0.05   0.01  -0.08     0.06  -0.01   0.10    -0.01   0.00  -0.02
  13   1    -0.02   0.07  -0.01    -0.03   0.11  -0.02    -0.00   0.01  -0.00
  14   1    -0.02   0.00  -0.04     0.16  -0.03   0.28    -0.00   0.00  -0.00
  15   1    -0.00   0.02  -0.00    -0.06   0.20  -0.05    -0.00   0.00  -0.00
  16   1    -0.01  -0.00  -0.01     0.11  -0.02   0.17     0.00   0.00   0.00
  17   1    -0.01   0.02  -0.00    -0.16   0.47  -0.11     0.00  -0.01   0.00
  18   1    -0.00   0.01  -0.00    -0.04   0.12  -0.03     0.00  -0.00  -0.00
  19   1     0.00  -0.00  -0.00    -0.07   0.04   0.10    -0.01   0.00   0.01
  20   1     0.01  -0.01  -0.02    -0.24   0.16   0.38    -0.02   0.02   0.03
  21   1     0.00   0.00  -0.00     0.14   0.11  -0.06    -0.02  -0.02   0.00
  22   1     0.01  -0.01  -0.02    -0.10   0.07   0.18    -0.03   0.03   0.07
  23   1     0.02   0.02  -0.01     0.24   0.21  -0.11    -0.08  -0.07   0.04
  24   1     0.01  -0.03   0.01     0.03  -0.06   0.02     0.02   0.02  -0.03
  25   1     0.10   0.09  -0.04    -0.05  -0.04   0.02    -0.46  -0.41   0.19
  26   1     0.07  -0.07  -0.15     0.03  -0.02  -0.05    -0.26   0.26   0.53
                     64                     65                     66
                        a                      a                      a 
 Frequencies --  2987.5541              2976.4492              2991.7018
 Red. masses --    99.0000                99.0000                99.0000
 Frc consts  --    99.0000                99.0000                99.0000
 IR Inten    --    99.0000                99.0000                99.0000
 Raman Activ --     0.0000                 0.0000                 0.0000
 Depolar     --     0.0000                 0.0000                 0.0000
 Atom AN      X      Y      Z        X      Y      Z        X      Y      Z
   1   6    -0.01  -0.01  -0.01     0.01   0.02   0.00    -0.01   0.00  -0.01
   2   6     0.02   0.04   0.04    -0.03  -0.15  -0.11     0.02  -0.02   0.02
   3   6     0.03   0.05   0.07     0.03   0.01   0.05     0.06  -0.01   0.10
   4   6    -0.00   0.10   0.03    -0.01   0.05  -0.00     0.03  -0.11   0.02
   5   6     0.00   0.00  -0.00    -0.00   0.02  -0.02    -0.01  -0.01   0.03
   6   6     0.01  -0.08  -0.08     0.01  -0.00  -0.01    -0.06   0.05   0.11
   7   6    -0.05  -0.10  -0.02     0.00  -0.01  -0.01    -0.09  -0.08   0.04
   8   6     0.00   0.03  -0.00    -0.00   0.00   0.00     0.02   0.01  -0.02
   9   1    -0.01   0.03  -0.01     0.02  -0.04   0.01     0.00  -0.01   0.00
  10   1     0.03   0.02  -0.00    -0.04  -0.03   0.00     0.01   0.01  -0.00
  11   1     0.02  -0.00   0.04    -0.02   0.00  -0.04     0.03  -0.00   0.04
  12   1    -0.10   0.02  -0.17     0.31  -0.07   0.53    -0.04   0.00  -0.07
  13   1     0.05  -0.16   0.03    -0.18   0.62  -0.12    -0.01   0.06  -0.01
  14   1    -0.17   0.03  -0.30    -0.13   0.02  -0.23    -0.22   0.03  -0.39
  15   1     0.06  -0.20   0.05     0.02  -0.07   0.02     0.01  -0.01   0.02
  16   1    -0.12   0.02  -0.19    -0.01   0.01  -0.02     0.01  -0.01   0.01
  17   1     0.13  -0.37   0.09     0.06  -0.18   0.04    -0.13   0.40  -0.08
  18   1    -0.00   0.00  -0.00     0.03  -0.09   0.02    -0.03   0.08  -0.01
  19   1    -0.00   0.00   0.00    -0.03   0.02   0.04     0.05  -0.04  -0.07
  20   1    -0.22   0.14   0.34    -0.03   0.02   0.04     0.25  -0.17  -0.41
  21   1     0.16   0.13  -0.06     0.00   0.00  -0.00    -0.03  -0.01   0.02
  22   1    -0.12   0.08   0.21    -0.03   0.02   0.06    -0.03   0.00   0.04
  23   1     0.31   0.27  -0.15     0.02   0.02  -0.01     0.35   0.31  -0.16
  24   1     0.02  -0.05   0.01     0.00  -0.01   0.00     0.01  -0.02   0.00
  25   1    -0.05  -0.04   0.02     0.00   0.00   0.00    -0.06  -0.05   0.02
  26   1     0.02  -0.01  -0.04     0.00  -0.00  -0.01    -0.02   0.03   0.04
                     67                     68                     69
                        a                      a                      a 
 Frequencies --  2984.9088              2974.6763              3030.4105
 Red. masses --    99.0000                99.0000                99.0000
 Frc consts  --    99.0000                99.0000                99.0000
 IR Inten    --    99.0000                99.0000                99.0000
 Raman Activ --     0.0000                 0.0000                 0.0000
 Depolar     --     0.0000                 0.0000                 0.0000
 Atom AN      X      Y      Z        X      Y      Z        X      Y      Z
   1   6     0.01   0.00   0.01    -0.00   0.01  -0.00    -0.04  -0.05  -0.03
   2   6    -0.02   0.01  -0.04     0.02  -0.05   0.01    -0.00  -0.00  -0.01
   3   6    -0.07  -0.00  -0.13     0.01  -0.07   0.00    -0.00  -0.00  -0.00
   4   6    -0.03   0.10  -0.02     0.03   0.02   0.07    -0.00   0.00  -0.00
   5   6    -0.02   0.03   0.01    -0.02  -0.08   0.14    -0.00   0.00   0.00
   6   6    -0.04   0.04   0.07    -0.05  -0.05   0.02     0.00   0.01   0.01
   7   6    -0.08  -0.09   0.02    -0.02   0.03   0.05     0.01   0.03   0.01
   8   6     0.01   0.01  -0.01     0.01   0.00  -0.01    -0.02   0.27   0.02
   9   1    -0.00   0.01   0.00     0.01  -0.04   0.01    -0.04   0.11  -0.02
  10   1    -0.01  -0.01   0.00    -0.01  -0.00  -0.00     0.13   0.09  -0.01
  11   1    -0.03   0.00  -0.05     0.00   0.00   0.00     0.07  -0.02   0.13
  12   1     0.07  -0.01   0.13    -0.01  -0.01  -0.02     0.01  -0.00   0.02
  13   1     0.01  -0.03   0.00    -0.05   0.17  -0.03    -0.00   0.01  -0.00
  14   1     0.28  -0.04   0.50     0.03  -0.01   0.05     0.01  -0.00   0.01
  15   1    -0.03   0.06  -0.03    -0.08   0.28  -0.05    -0.00   0.00  -0.00
  16   1    -0.02   0.01  -0.02    -0.17   0.00  -0.26    -0.00   0.00  -0.00
  17   1     0.12  -0.36   0.08     0.03  -0.09   0.03     0.00  -0.01   0.00
  18   1     0.03  -0.09   0.02    -0.18   0.50  -0.09     0.00  -0.01   0.00
  19   1     0.03  -0.02  -0.04     0.27  -0.20  -0.41     0.00  -0.00  -0.01
  20   1     0.18  -0.12  -0.29    -0.02   0.00   0.02     0.03  -0.02  -0.05
  21   1    -0.05  -0.04   0.03     0.21   0.19  -0.07    -0.04  -0.03   0.02
  22   1    -0.06   0.03   0.09     0.10  -0.09  -0.19     0.04  -0.02  -0.06
  23   1     0.36   0.32  -0.17    -0.02  -0.01   0.01    -0.08  -0.07   0.04
  24   1     0.01  -0.02   0.00    -0.00   0.00  -0.00     0.26  -0.55   0.14
  25   1    -0.04  -0.04   0.02    -0.02  -0.02   0.01    -0.37  -0.27   0.17
  26   1    -0.01   0.01   0.02    -0.01   0.01   0.02     0.20  -0.14  -0.39
                     70                     71                     72
                        a                      a                      a 
 Frequencies --  3031.3005              3036.2279              3037.2011
 Red. masses --    99.0000                99.0000                99.0000
 Frc consts  --    99.0000                99.0000                99.0000
 IR Inten    --    99.0000                99.0000                99.0000
 Raman Activ --     0.0000                 0.0000                 0.0000
 Depolar     --     0.0000                 0.0000                 0.0000
 Atom AN      X      Y      Z        X      Y      Z        X      Y      Z
   1   6    -0.15  -0.22  -0.07    -0.03   0.00   0.02     0.13  -0.00  -0.09
   2   6    -0.01  -0.03  -0.02    -0.00   0.00   0.00     0.00  -0.00  -0.00
   3   6    -0.00  -0.01  -0.01     0.00   0.00   0.00    -0.00  -0.00  -0.00
   4   6    -0.00  -0.01  -0.00     0.00   0.00   0.00     0.00   0.00   0.00
   5   6     0.00  -0.00  -0.00     0.00  -0.00   0.00    -0.00  -0.00   0.00
   6   6     0.00  -0.00  -0.01     0.00  -0.00  -0.00    -0.00  -0.00  -0.00
   7   6    -0.00  -0.01  -0.00    -0.00  -0.00  -0.01    -0.00  -0.00  -0.00
   8   6     0.01  -0.07  -0.01    -0.10   0.04  -0.10    -0.02   0.01  -0.02
   9   1    -0.18   0.48  -0.10     0.03  -0.11   0.02    -0.12   0.46  -0.09
  10   1     0.51   0.35  -0.03     0.12   0.09  -0.00    -0.56  -0.42   0.02
  11   1     0.19  -0.06   0.38    -0.05   0.01  -0.09     0.24  -0.02   0.38
  12   1     0.04  -0.01   0.06    -0.00   0.00  -0.00     0.00  -0.00   0.00
  13   1    -0.02   0.08  -0.02     0.00  -0.00   0.00    -0.00   0.01  -0.00
  14   1     0.03  -0.01   0.05    -0.00   0.00  -0.00     0.01  -0.00   0.01
  15   1    -0.01   0.05  -0.01     0.00  -0.00   0.00    -0.00   0.01  -0.00
  16   1     0.01  -0.00   0.01    -0.00  -0.00  -0.00    -0.00  -0.00  -0.00
  17   1    -0.01   0.02  -0.01     0.00  -0.00   0.00    -0.00   0.00   0.00
  18   1    -0.00   0.01  -0.00    -0.00   0.00  -0.00    -0.00   0.00  -0.00
  19   1    -0.01   0.00   0.01     0.00  -0.00   0.00     0.00  -0.00  -0.00
  20   1    -0.02   0.01   0.02    -0.01   0.00   0.01    -0.00   0.00   0.00
  21   1     0.01   0.01  -0.00     0.01   0.01  -0.00     0.00   0.00  -0.00
  22   1    -0.01   0.01   0.02    -0.00   0.00   0.01    -0.00   0.00   0.00
  23   1     0.02   0.01  -0.01     0.00   0.00  -0.00     0.00   0.00  -0.00
  24   1    -0.06   0.14  -0.04     0.27  -0.63   0.14     0.06  -0.14   0.03
  25   1     0.08   0.06  -0.04     0.32   0.29  -0.16     0.08   0.07  -0.04
  26   1    -0.06   0.05   0.12    -0.21   0.19   0.38    -0.05   0.04   0.09
