      -----------------------------------------------------------      
     |                   =====================                   |     
     |                           x T B                           |     
     |                   =====================                   |     
     |                         S. Grimme                         |     
     |          Mulliken Center for Theoretical Chemistry        |     
     |                    University of Bonn                     |     
      -----------------------------------------------------------      

   * xtb version 6.6.1 (8d0f1dd) compiled by 'stahn@M-Bot' on 2023-08-01

   xtb is free software: you can redistribute it and/or modify it under
   the terms of the GNU Lesser General Public License as published by
   the Free Software Foundation, either version 3 of the License, or
   (at your option) any later version.
   
   xtb is distributed in the hope that it will be useful,
   but WITHOUT ANY WARRANTY; without even the implied warranty of
   MERCHANTABILITY or FITNESS FOR A PARTICULAR PURPOSE.  See the
   GNU Lesser General Public License for more details.
   
   Cite this work as:
   * C. Bannwarth, E. Caldeweyher, S. Ehlert, A. Hansen, P. Pracht,
     J. Seibert, S. Spicher, S. Grimme, WIREs Comput. Mol. Sci., 2020, 11,
     e01493. DOI: 10.1002/wcms.1493
   
   for GFN2-xTB:
   * C. Bannwarth, S. Ehlert and S. Grimme., J. Chem. Theory Comput., 2019,
     15, 1652-1671. DOI: 10.1021/acs.jctc.8b01176
   for GFN1-xTB:
   * S. Grimme, C. Bannwarth, P. Shushkov, J. Chem. Theory Comput., 2017,
     13, 1989-2009. DOI: 10.1021/acs.jctc.7b00118
   for GFN0-xTB:
   * P. Pracht, E. Caldeweyher, S. Ehlert, S. Grimme, ChemRxiv, 2019, preprint.
     DOI: 10.26434/chemrxiv.8326202.v1
   for GFN-FF:
   * S. Spicher and S. Grimme, Angew. Chem. Int. Ed., 2020, 59, 15665-15673.
     DOI: 10.1002/anie.202004239
   
   for ALPB and GBSA implicit solvation:
   * S. Ehlert, M. Stahn, S. Spicher, S. Grimme, J. Chem. Theory Comput.,
     2021, 17, 4250-4261. DOI: 10.1021/acs.jctc.1c00471
   
   for DFT-D4:
   * E. Caldeweyher, C. Bannwarth and S. Grimme, J. Chem. Phys., 2017,
     147, 034112. DOI: 10.1063/1.4993215
   * E. Caldeweyher, S. Ehlert, A. Hansen, H. Neugebauer, S. Spicher,
     C. Bannwarth and S. Grimme, J. Chem. Phys., 2019, 150, 154122.
     DOI: 10.1063/1.5090222
   * E. Caldeweyher, J.-M. Mewes, S. Ehlert and S. Grimme, Phys. Chem. Chem. Phys.
     2020, 22, 8499-8512. DOI: 10.1039/D0CP00502A
   
   for sTDA-xTB:
   * S. Grimme and C. Bannwarth, J. Chem. Phys., 2016, 145, 054103.
     DOI: 10.1063/1.4959605
   
   in the mass-spec context:
   * V. Asgeirsson, C. Bauer and S. Grimme, Chem. Sci., 2017, 8, 4879.
     DOI: 10.1039/c7sc00601b
   * J. Koopman and S. Grimme, ACS Omega 2019, 4, 12, 15120-15133.
     DOI: 10.1021/acsomega.9b02011
   
   for metadynamics refer to:
   * S. Grimme, J. Chem. Theory Comput., 2019, 155, 2847-2862
     DOI: 10.1021/acs.jctc.9b00143
   
   for SPH calculations refer to:
   * S. Spicher and S. Grimme, J. Chem. Theory Comput., 2021, 17, 1701-1714
     DOI: 10.1021/acs.jctc.0c01306
   
   with help from (in alphabetical order)
   P. Atkinson, C. Bannwarth, F. Bohle, G. Brandenburg, E. Caldeweyher
   M. Checinski, S. Dohm, S. Ehlert, S. Ehrlich, I. Gerasimov, C. Hölzer
   A. Katbashev, J. Koopman, C. Lavigne, S. Lehtola, F. März, M. Müller,
   F. Musil, H. Neugebauer, J. Pisarek, C. Plett, P. Pracht, F. Pultar,
   J. Seibert, P. Shushkov, S. Spicher, M. Stahn, M. Steiner, T. Strunk,
   J. Stückrath, T. Rose, and J. Unsleber
   
 * started run on 2024/04/20 at 10:58:48.078     

           -------------------------------------------------
          |                Calculation Setup                |
           -------------------------------------------------

          program call               : xtb folded.xyz --gfn 2 --ohess -P 4
          coordinate file            : folded.xyz
          omp threads                :                     4

   ID    Z sym.   atoms
    1    6 C      1-8
    2    1 H      9-26

           -------------------------------------------------
          |                 G F N 2 - x T B                 |
           -------------------------------------------------

        Reference                      10.1021/acs.jctc.8b01176
      * Hamiltonian:
        H0-scaling (s, p, d)           1.850000    2.230000    2.230000
        zeta-weighting                 0.500000
      * Dispersion:
        s8                             2.700000
        a1                             0.520000
        a2                             5.000000
        s9                             5.000000
      * Repulsion:
        kExp                           1.500000    1.000000
        rExp                           1.000000
      * Coulomb:
        alpha                          2.000000
        third order                    shell-resolved
        anisotropic                    true
        a3                             3.000000
        a5                             4.000000
        cn-shift                       1.200000
        cn-exp                         4.000000
        max-rad                        5.000000


          ...................................................
          :                      SETUP                      :
          :.................................................:
          :  # basis functions                  50          :
          :  # atomic orbitals                  50          :
          :  # shells                           34          :
          :  # electrons                        50          :
          :  max. iterations                   250          :
          :  Hamiltonian                  GFN2-xTB          :
          :  restarted?                      false          :
          :  GBSA solvation                  false          :
          :  PC potential                    false          :
          :  electronic temp.          300.0000000     K    :
          :  accuracy                    1.0000000          :
          :  -> integral cutoff          0.2500000E+02      :
          :  -> integral neglect         0.1000000E-07      :
          :  -> SCF convergence          0.1000000E-05 Eh   :
          :  -> wf. convergence          0.1000000E-03 e    :
          :  Broyden damping             0.4000000          :
          ...................................................

 iter      E             dE          RMSdq      gap      omega  full diag
   1    -26.6333788 -0.266334E+02  0.243E+00   13.05       0.0  T
   2    -26.7038421 -0.704633E-01  0.123E+00   12.76       1.0  T
   3    -26.7046456 -0.803553E-03  0.670E-01   12.74       1.0  T
   4    -26.7048532 -0.207602E-03  0.853E-02   12.76       1.0  T
   5    -26.7048620 -0.879314E-05  0.458E-02   12.76       1.0  T
   6    -26.7048631 -0.108398E-05  0.314E-03   12.76       6.2  T
   7    -26.7048631 -0.571231E-07  0.133E-03   12.76      14.7  T
   8    -26.7048631 -0.560981E-08  0.279E-04   12.76      70.3  T
   9    -26.7048631 -0.164480E-09  0.117E-04   12.76     168.2  T

   *** convergence criteria satisfied after 9 iterations ***

         #    Occupation            Energy/Eh            Energy/eV
      -------------------------------------------------------------
         1        2.0000           -0.6214817             -16.9114
       ...           ...                  ...                  ...
        19        2.0000           -0.4419133             -12.0251
        20        2.0000           -0.4356596             -11.8549
        21        2.0000           -0.4264275             -11.6037
        22        2.0000           -0.4240350             -11.5386
        23        2.0000           -0.4181564             -11.3786
        24        2.0000           -0.4158546             -11.3160
        25        2.0000           -0.4089703             -11.1286 (HOMO)
        26                          0.0599148               1.6304 (LUMO)
        27                          0.0732877               1.9943
        28                          0.0947193               2.5774
        29                          0.1139662               3.1012
        30                          0.1176374               3.2011
       ...                                ...                  ...
        50                          0.3067211               8.3463
      -------------------------------------------------------------
                  HL-Gap            0.4688851 Eh           12.7590 eV
             Fermi-level           -0.1745278 Eh           -4.7491 eV

 SCC (total)                   0 d,  0 h,  0 min,  0.044 sec
 SCC setup                      ...        0 min,  0.002 sec (  3.473%)
 Dispersion                     ...        0 min,  0.001 sec (  2.506%)
 classical contributions        ...        0 min,  0.000 sec (  0.048%)
 integral evaluation            ...        0 min,  0.001 sec (  2.057%)
 iterations                     ...        0 min,  0.032 sec ( 74.135%)
 molecular gradient             ...        0 min,  0.006 sec ( 14.828%)
 printout                       ...        0 min,  0.001 sec (  2.881%)

         :::::::::::::::::::::::::::::::::::::::::::::::::::::
         ::                     SUMMARY                     ::
         :::::::::::::::::::::::::::::::::::::::::::::::::::::
         :: total energy             -26.319087615014 Eh    ::
         :: gradient norm              0.026410313556 Eh/a0 ::
         :: HOMO-LUMO gap             12.759014224289 eV    ::
         ::.................................................::
         :: SCC energy               -26.704863145331 Eh    ::
         :: -> isotropic ES            0.004515644129 Eh    ::
         :: -> anisotropic ES          0.009132063404 Eh    ::
         :: -> anisotropic XC          0.016117363939 Eh    ::
         :: -> dispersion             -0.015691695474 Eh    ::
         :: repulsion energy           0.385705260206 Eh    ::
         :: add. restraining           0.000000000000 Eh    ::
         :: total charge              -0.000000000000 e     ::
         :::::::::::::::::::::::::::::::::::::::::::::::::::::

      ----------------------------------------------------------- 
     |                   =====================                   |
     |                        A N C O P T                        |
     |                   =====================                   |
     |               Approximate Normal Coordinate               |
     |                Rational Function Optimizer                |
      ----------------------------------------------------------- 

          ...................................................
          :                      SETUP                      :
          :.................................................:
          :   optimization level            normal          :
          :   max. optcycles                   200          :
          :   ANC micro-cycles                  20          :
          :   degrees of freedom                72          :
          :.................................................:
          :   RF solver                   davidson          :
          :   write xtbopt.log                true          :
          :   linear?                        false          :
          :   energy convergence         0.5000000E-05 Eh   :
          :   grad. convergence          0.1000000E-02 Eh/α :
          :   maxmium RF displ.          2.0000000          :
          :   Hlow (freq-cutoff)         0.2000000E-01      :
          :   Hmax (freq-cutoff)         5.0000000          :
          :   S6 in model hess.         70.0000000          :
          ...................................................

generating ANC from model Hessian ...
Using Lindh-Hessian (1995)
 Shifting diagonal of input Hessian by   1.874897517355978E-002
 Lowest  eigenvalues of input Hessian
    0.000000    0.000000    0.000000    0.000000    0.000000    0.000000
    0.020000    0.022659    0.023072    0.023823    0.024351    0.027527
    0.030551    0.032075    0.033247    0.034280    0.037680    0.039738
 Highest eigenvalues
    1.203683    1.214184    1.222953    1.250485    1.299500    1.317517
 

........................................................................
.............................. CYCLE    1 ..............................
........................................................................

 iter      E             dE          RMSdq      gap      omega  full diag
   1    -26.7048631 -0.267049E+02  0.212E-05   12.76       0.0  T
   2    -26.7048631 -0.110845E-11  0.125E-05   12.76    1572.1  T
   3    -26.7048631 -0.603961E-13  0.382E-06   12.76    5129.1  T
     SCC iter.                  ...        0 min,  0.014 sec
     gradient                   ...        0 min,  0.011 sec
 * total energy  :   -26.3190876 Eh     change       -0.2117062E-10 Eh
   gradient norm :     0.0264102 Eh/α   predicted     0.0000000E+00 (-100.00%)
   displ. norm   :     0.1536984 α      lambda       -0.2278496E-02
   maximum displ.:     0.0901151 α      in ANC's #31, #20, #22, ...

........................................................................
.............................. CYCLE    2 ..............................
........................................................................

 iter      E             dE          RMSdq      gap      omega  full diag
   1    -26.7129024 -0.267129E+02  0.128E-01   12.95       0.0  T
   2    -26.7129059 -0.349637E-05  0.736E-02   12.95       1.0  T
   3    -26.7129064 -0.515106E-06  0.388E-03   12.95       5.0  T
   4    -26.7129064 -0.457770E-07  0.128E-03   12.95      15.4  T
   5    -26.7129064 -0.227382E-08  0.682E-04   12.95      28.8  T
   6    -26.7129064 -0.366661E-09  0.569E-05   12.95     344.7  T
     SCC iter.                  ...        0 min,  0.027 sec
     gradient                   ...        0 min,  0.007 sec
 * total energy  :   -26.3205735 Eh     change       -0.1485844E-02 Eh
   gradient norm :     0.0115738 Eh/α   predicted    -0.1166163E-02 ( -21.52%)
   displ. norm   :     0.0729945 α      lambda       -0.3825380E-03
   maximum displ.:     0.0391998 α      in ANC's #31, #13, #11, ...

........................................................................
.............................. CYCLE    3 ..............................
........................................................................

 iter      E             dE          RMSdq      gap      omega  full diag
   1    -26.7179691 -0.267180E+02  0.570E-02   13.02       0.0  T
   2    -26.7179711 -0.201277E-05  0.323E-02   13.02       1.0  T
   3    -26.7179712 -0.917742E-07  0.375E-03   13.02       5.2  T
   4    -26.7179712 -0.172392E-07  0.647E-04   13.02      30.3  T
   5    -26.7179712 -0.132201E-08  0.362E-04   13.02      54.2  T
     SCC iter.                  ...        0 min,  0.016 sec
     gradient                   ...        0 min,  0.011 sec
 * total energy  :   -26.3207800 Eh     change       -0.2065735E-03 Eh
   gradient norm :     0.0022093 Eh/α   predicted    -0.1923117E-03 (  -6.90%)
   displ. norm   :     0.0211650 α      lambda       -0.1389863E-04
   maximum displ.:     0.0101460 α      in ANC's #3, #6, #1, ...

........................................................................
.............................. CYCLE    4 ..............................
........................................................................

 iter      E             dE          RMSdq      gap      omega  full diag
   1    -26.7185456 -0.267185E+02  0.592E-03   13.03       0.0  T
   2    -26.7185457 -0.635999E-07  0.338E-03   13.03       5.8  T
   3    -26.7185457 -0.123382E-08  0.798E-04   13.03      24.6  T
   4    -26.7185457 -0.485908E-09  0.120E-04   13.03     162.8  T
     SCC iter.                  ...        0 min,  0.010 sec
     gradient                   ...        0 min,  0.004 sec
 * total energy  :   -26.3207921 Eh     change       -0.1208253E-04 Eh
   gradient norm :     0.0005805 Eh/α   predicted    -0.7940023E-05 ( -34.29%)
   displ. norm   :     0.0661246 α      lambda       -0.1786307E-04
   maximum displ.:     0.0350125 α      in ANC's #3, #6, #1, ...

........................................................................
.............................. CYCLE    5 ..............................
........................................................................

 iter      E             dE          RMSdq      gap      omega  full diag
   1    -26.7189493 -0.267189E+02  0.125E-02   13.03       0.0  T
   2    -26.7189494 -0.101744E-06  0.737E-03   13.03       2.7  T
   3    -26.7189494 -0.667159E-08  0.833E-04   13.03      23.5  T
   4    -26.7189494 -0.222838E-08  0.258E-04   13.03      76.0  T
     SCC iter.                  ...        0 min,  0.009 sec
     gradient                   ...        0 min,  0.003 sec
 * total energy  :   -26.3208062 Eh     change       -0.1410449E-04 Eh
   gradient norm :     0.0023529 Eh/α   predicted    -0.8963136E-05 ( -36.45%)
   displ. norm   :     0.0243765 α      lambda       -0.7447793E-05
   maximum displ.:     0.0145996 α      in ANC's #3, #1, #2, ...

........................................................................
.............................. CYCLE    6 ..............................
........................................................................

 iter      E             dE          RMSdq      gap      omega  full diag
   1    -26.7187148 -0.267187E+02  0.421E-03   13.02       0.0  T
   2    -26.7187148 -0.112135E-07  0.247E-03   13.02       7.9  T
   3    -26.7187148 -0.416254E-09  0.272E-04   13.02      72.1  T
   4    -26.7187148 -0.175323E-09  0.672E-05   13.02     291.7  T
     SCC iter.                  ...        0 min,  0.003 sec
     gradient                   ...        0 min,  0.002 sec
 * total energy  :   -26.3208129 Eh     change       -0.6671209E-05 Eh
   gradient norm :     0.0017337 Eh/α   predicted    -0.3729086E-05 ( -44.10%)
   displ. norm   :     0.1645141 α      lambda       -0.2744153E-04
   maximum displ.:     0.1013068 α      in ANC's #3, #1, #2, ...

........................................................................
.............................. CYCLE    7 ..............................
........................................................................

 iter      E             dE          RMSdq      gap      omega  full diag
   1    -26.7174646 -0.267175E+02  0.283E-02   13.02       0.0  T
   2    -26.7174650 -0.351822E-06  0.167E-02   13.02       1.2  T
   3    -26.7174650 -0.154807E-07  0.140E-03   13.02      14.1  T
   4    -26.7174650 -0.651553E-08  0.419E-04   13.02      46.8  T
   5    -26.7174650 -0.627736E-09  0.194E-04   13.02     101.0  T
     SCC iter.                  ...        0 min,  0.004 sec
     gradient                   ...        0 min,  0.002 sec
 * total energy  :   -26.3208282 Eh     change       -0.1535297E-04 Eh
   gradient norm :     0.0020169 Eh/α   predicted    -0.1388651E-04 (  -9.55%)
   displ. norm   :     0.0118641 α      lambda       -0.6416999E-05
   maximum displ.:     0.0088403 α      in ANC's #6, #7, #5, ...

........................................................................
.............................. CYCLE    8 ..............................
........................................................................

 iter      E             dE          RMSdq      gap      omega  full diag
   1    -26.7178310 -0.267178E+02  0.259E-03   13.02       0.0  T
   2    -26.7178310 -0.141514E-07  0.146E-03   13.02      13.5  T
   3    -26.7178310 -0.359400E-09  0.377E-04   13.02      52.0  T
   4    -26.7178310 -0.922746E-10  0.597E-05   13.02     328.3  T
     SCC iter.                  ...        0 min,  0.004 sec
     gradient                   ...        0 min,  0.002 sec
 * total energy  :   -26.3208339 Eh     change       -0.5660378E-05 Eh
   gradient norm :     0.0013730 Eh/α   predicted    -0.3209546E-05 ( -43.30%)
   displ. norm   :     0.1046499 α      lambda       -0.2559123E-04
   maximum displ.:     0.0501238 α      in ANC's #6, #3, #1, ...

........................................................................
.............................. CYCLE    9 ..............................
........................................................................

 iter      E             dE          RMSdq      gap      omega  full diag
   1    -26.7191558 -0.267192E+02  0.233E-02   13.02       0.0  T
   2    -26.7191561 -0.281573E-06  0.137E-02   13.02       1.4  T
   3    -26.7191561 -0.108472E-07  0.132E-03   13.02      14.9  T
   4    -26.7191561 -0.435775E-08  0.341E-04   13.02      57.5  T
   5    -26.7191561 -0.429623E-09  0.160E-04   13.02     122.7  T
     SCC iter.                  ...        0 min,  0.009 sec
     gradient                   ...        0 min,  0.004 sec
 * total energy  :   -26.3208532 Eh     change       -0.1927425E-04 Eh
   gradient norm :     0.0018709 Eh/α   predicted    -0.1286041E-04 ( -33.28%)
   displ. norm   :     0.1056017 α      lambda       -0.1039150E-04
   maximum displ.:     0.0649959 α      in ANC's #3, #1, #2, ...

........................................................................
.............................. CYCLE   10 ..............................
........................................................................

 iter      E             dE          RMSdq      gap      omega  full diag
   1    -26.7187225 -0.267187E+02  0.204E-02   13.02       0.0  T
   2    -26.7187226 -0.277221E-07  0.121E-02   13.02       1.6  T
   3    -26.7187226 -0.596387E-08  0.415E-04   13.02      47.3  T
   4    -26.7187226 -0.355367E-09  0.212E-04   13.02      92.4  T
     SCC iter.                  ...        0 min,  0.023 sec
     gradient                   ...        0 min,  0.010 sec
 * total energy  :   -26.3208665 Eh     change       -0.1334835E-04 Eh
   gradient norm :     0.0013194 Eh/α   predicted    -0.5222707E-05 ( -60.87%)
   displ. norm   :     0.2831100 α      lambda       -0.2133560E-04
   maximum displ.:     0.1729233 α      in ANC's #3, #1, #2, ...

........................................................................
.............................. CYCLE   11 ..............................
........................................................................

 iter      E             dE          RMSdq      gap      omega  full diag
   1    -26.7173653 -0.267174E+02  0.549E-02   13.02       0.0  T
   2    -26.7173655 -0.251442E-06  0.326E-02   13.02       1.0  T
   3    -26.7173656 -0.437717E-07  0.115E-03   13.02      17.1  T
   4    -26.7173656 -0.274695E-08  0.582E-04   13.02      33.7  T
   5    -26.7173656 -0.209841E-09  0.182E-04   13.02     107.5  T
     SCC iter.                  ...        0 min,  0.030 sec
     gradient                   ...        0 min,  0.003 sec
 * total energy  :   -26.3208803 Eh     change       -0.1372613E-04 Eh
   gradient norm :     0.0013802 Eh/α   predicted    -0.1104911E-04 ( -19.50%)
   displ. norm   :     0.0360866 α      lambda       -0.4626569E-05
   maximum displ.:     0.0223240 α      in ANC's #3, #1, #2, ...

........................................................................
.............................. CYCLE   12 ..............................
........................................................................

 iter      E             dE          RMSdq      gap      omega  full diag
   1    -26.7182093 -0.267182E+02  0.883E-03   13.02       0.0  T
   2    -26.7182094 -0.393196E-07  0.515E-03   13.02       3.8  T
   3    -26.7182094 -0.269924E-08  0.549E-04   13.02      35.7  T
   4    -26.7182094 -0.714323E-09  0.170E-04   13.02     115.5  T
     SCC iter.                  ...        0 min,  0.013 sec
     gradient                   ...        0 min,  0.009 sec
 * total energy  :   -26.3208841 Eh     change       -0.3806445E-05 Eh
   gradient norm :     0.0004963 Eh/α   predicted    -0.2317783E-05 ( -39.11%)
   displ. norm   :     0.0334007 α      lambda       -0.1915735E-05
   maximum displ.:     0.0177758 α      in ANC's #2, #3, #1, ...

   *** GEOMETRY OPTIMIZATION CONVERGED AFTER 12 ITERATIONS ***

------------------------------------------------------------------------
 total energy gain   :        -0.0017964 Eh       -1.1273 kcal/mol
 total RMSD          :         0.1456051 a0        0.0771 Å
 total power (kW/mol):        -0.3930470 (step)  -14.8046 (real)
------------------------------------------------------------------------

 ANCopt (total)                0 d,  0 h,  0 min,  0.319 sec
 optimizer setup                ...        0 min,  0.001 sec (  0.413%)
 model hessian                  ...        0 min,  0.011 sec (  3.535%)
 ANC generation                 ...        0 min,  0.002 sec (  0.604%)
 coordinate transformation      ...        0 min,  0.000 sec (  0.063%)
 single point calculation       ...        0 min,  0.281 sec ( 88.183%)
 optimization log               ...        0 min,  0.001 sec (  0.430%)
 hessian update                 ...        0 min,  0.013 sec (  4.169%)
 rational function              ...        0 min,  0.003 sec (  0.926%)

================
 final structure:
================
26
 xtb: 6.6.1 (8d0f1dd)
C            3.58585806863263        0.11161419282510       -1.18246457878309
C            2.67036509283146        0.56640810051072       -0.05260883066440
C            1.40510277938054       -0.28382774327441        0.03598037077151
C            0.48990819222356        0.17905793516474        1.16717309207003
C           -0.72814396890919       -0.72205433438576        1.37758552826526
C           -1.69132952369567       -0.79696186503043        0.19178249813286
C           -2.33842316725077        0.54182514498436       -0.15537006686396
C           -3.39573221233722        0.38788415295654       -1.24211872632419
H            3.90631454752118       -0.91602928502487       -1.02415528041553
H            4.47059690209888        0.74191672576605       -1.23674965847208
H            3.06845137782292        0.16421211424915       -2.13817929705337
H            3.21052755304435        0.51097502446120        0.89565465599244
H            2.39024843800885        1.61076663124547       -0.21109913625091
H            0.87557892949209       -0.22597016655370       -0.91660193038552
H            1.68264519932834       -1.32812387563787        0.20018024233613
H            1.06521455925129        0.19414376361858        2.09708157843172
H            0.16344216856939        1.20243954033458        0.97362157295590
H           -0.37925750166898       -1.73298997715348        1.60459103804102
H           -1.27802138669014       -0.36107071714083        2.25090299880167
H           -1.16960238354042       -1.18524340656857       -0.68467296108991
H           -2.48107335492332       -1.51116775118586        0.44081591308985
H           -2.79891253442400        0.96274388199219        0.74178776708347
H           -1.57628104809306        1.24306441850899       -0.49912266311768
H           -3.83887985063577        1.35072910094569       -1.48651218486150
H           -4.18849479634564       -0.28088525077931       -0.91313625644262
H           -2.95470807969146       -0.02595235482823       -2.14667868524725
           -------------------------------------------------
          |                Final Singlepoint                |
           -------------------------------------------------

          ...................................................
          :                      SETUP                      :
          :.................................................:
          :  # basis functions                  50          :
          :  # atomic orbitals                  50          :
          :  # shells                           34          :
          :  # electrons                        50          :
          :  max. iterations                   250          :
          :  Hamiltonian                  GFN2-xTB          :
          :  restarted?                      false          :
          :  GBSA solvation                  false          :
          :  PC potential                    false          :
          :  electronic temp.          300.0000000     K    :
          :  accuracy                    1.0000000          :
          :  -> integral cutoff          0.2500000E+02      :
          :  -> integral neglect         0.1000000E-07      :
          :  -> SCF convergence          0.1000000E-05 Eh   :
          :  -> wf. convergence          0.1000000E-03 e    :
          :  Broyden damping             0.4000000          :
          ...................................................

 iter      E             dE          RMSdq      gap      omega  full diag
   1    -26.7182094 -0.267182E+02  0.802E-05   13.02       0.0  T
   2    -26.7182094 -0.477129E-11  0.460E-05   13.02     426.5  T
   3    -26.7182094  0.390799E-13  0.885E-06   13.02    2215.4  T

   *** convergence criteria satisfied after 3 iterations ***

         #    Occupation            Energy/Eh            Energy/eV
      -------------------------------------------------------------
         1        2.0000           -0.6223186             -16.9342
       ...           ...                  ...                  ...
        19        2.0000           -0.4414393             -12.0122
        20        2.0000           -0.4352509             -11.8438
        21        2.0000           -0.4262497             -11.5988
        22        2.0000           -0.4234428             -11.5225
        23        2.0000           -0.4179447             -11.3729
        24        2.0000           -0.4157793             -11.3139
        25        2.0000           -0.4110018             -11.1839 (HOMO)
        26                          0.0676428               1.8407 (LUMO)
        27                          0.0810950               2.2067
        28                          0.1046390               2.8474
        29                          0.1186522               3.2287
        30                          0.1235648               3.3624
       ...                                ...                  ...
        50                          0.3198650               8.7040
      -------------------------------------------------------------
                  HL-Gap            0.4786447 Eh           13.0246 eV
             Fermi-level           -0.1716795 Eh           -4.6716 eV

 SCC (total)                   0 d,  0 h,  0 min,  0.010 sec
 SCC setup                      ...        0 min,  0.001 sec (  6.014%)
 Dispersion                     ...        0 min,  0.000 sec (  0.807%)
 classical contributions        ...        0 min,  0.000 sec (  3.061%)
 integral evaluation            ...        0 min,  0.002 sec ( 19.575%)
 iterations                     ...        0 min,  0.003 sec ( 36.269%)
 molecular gradient             ...        0 min,  0.002 sec ( 21.861%)
 printout                       ...        0 min,  0.001 sec ( 12.145%)

         :::::::::::::::::::::::::::::::::::::::::::::::::::::
         ::                     SUMMARY                     ::
         :::::::::::::::::::::::::::::::::::::::::::::::::::::
         :: total energy             -26.320884059257 Eh    ::
         :: gradient norm              0.000496534866 Eh/a0 ::
         :: HOMO-LUMO gap             13.024584530344 eV    ::
         ::.................................................::
         :: SCC energy               -26.718209365229 Eh    ::
         :: -> isotropic ES            0.004814713822 Eh    ::
         :: -> anisotropic ES          0.008707571240 Eh    ::
         :: -> anisotropic XC          0.016285868511 Eh    ::
         :: -> dispersion             -0.015695223124 Eh    ::
         :: repulsion energy           0.397263935433 Eh    ::
         :: add. restraining           0.000000000000 Eh    ::
         :: total charge              -0.000000000000 e     ::
         :::::::::::::::::::::::::::::::::::::::::::::::::::::

           ------------------------------------------------- 
          |                Numerical Hessian                |
           ------------------------------------------------- 
step length          :   0.00500
SCC accuracy         :   0.30000
Hessian scale factor :   1.00000
frozen atoms in %    :   0.00000    0
RMS gradient         :   0.00050
estimated CPU  time      0.11 min
estimated wall time      0.03 min

writing file <hessian>.

 projected vibrational frequencies (cm⁻¹)
eigval :       -0.00    -0.00     0.00     0.00     0.00     0.00
eigval :       33.75    62.47    69.31   103.56   151.64   202.44
eigval :      227.75   234.13   265.65   295.36   399.80   417.41
eigval :      498.92   758.18   780.23   808.98   857.40   890.59
eigval :      920.91   944.62   956.12   990.23  1048.90  1069.31
eigval :     1084.52  1095.57  1113.46  1147.89  1154.90  1161.06
eigval :     1217.14  1230.39  1258.69  1278.11  1281.94  1286.68
eigval :     1292.01  1311.08  1350.29  1363.70  1374.52  1378.34
eigval :     1416.73  1416.95  1489.76  1493.16  1497.71  1500.60
eigval :     1502.34  1504.54  1505.46  1506.00  1508.17  1508.91
eigval :     2954.10  2954.29  2956.40  2958.52  2967.50  2970.32
eigval :     2974.68  2976.45  2984.91  2987.55  2991.70  2995.35
eigval :     3027.93  3028.92  3030.41  3031.30  3036.23  3037.20
           -------------------------------------------------
          |                Property Printout                |
           -------------------------------------------------

    * Orbital Energies and Occupations

         #    Occupation            Energy/Eh            Energy/eV
      -------------------------------------------------------------
         1        2.0000           -0.6223186             -16.9342
       ...           ...                  ...                  ...
        13        2.0000           -0.4883067             -13.2875
        14        2.0000           -0.4784517             -13.0193
        15        2.0000           -0.4691325             -12.7657
        16        2.0000           -0.4675327             -12.7222
        17        2.0000           -0.4511514             -12.2765
        18        2.0000           -0.4484044             -12.2017
        19        2.0000           -0.4414393             -12.0122
        20        2.0000           -0.4352508             -11.8438
        21        2.0000           -0.4262496             -11.5988
        22        2.0000           -0.4234428             -11.5225
        23        2.0000           -0.4179447             -11.3729
        24        2.0000           -0.4157793             -11.3139
        25        2.0000           -0.4110018             -11.1839 (HOMO)
        26                          0.0676429               1.8407 (LUMO)
        27                          0.0810950               2.2067
        28                          0.1046390               2.8474
        29                          0.1186522               3.2287
        30                          0.1235648               3.3624
        31                          0.1272697               3.4632
        32                          0.1452979               3.9538
        33                          0.1488505               4.0504
        34                          0.1590955               4.3292
        35                          0.1723152               4.6889
        36                          0.1757712               4.7830
       ...                                ...                  ...
        50                          0.3198651               8.7040
      -------------------------------------------------------------
                  HL-Gap            0.4786447 Eh           13.0246 eV
             Fermi-level           -0.1716795 Eh           -4.6716 eV

     #   Z          covCN         q      C6AA      α(0)
     1   6 C        3.752    -0.102    22.501     6.764
     2   6 C        3.801    -0.053    21.519     6.605
     3   6 C        3.802    -0.059    21.628     6.621
     4   6 C        3.802    -0.058    21.617     6.619
     5   6 C        3.801    -0.058    21.609     6.619
     6   6 C        3.802    -0.059    21.627     6.621
     7   6 C        3.800    -0.052    21.517     6.604
     8   6 C        3.752    -0.102    22.501     6.765
     9   1 H        0.925     0.033     2.547     2.496
    10   1 H        0.925     0.032     2.559     2.502
    11   1 H        0.925     0.033     2.548     2.496
    12   1 H        0.924     0.027     2.628     2.535
    13   1 H        0.924     0.027     2.625     2.534
    14   1 H        0.924     0.033     2.546     2.495
    15   1 H        0.924     0.029     2.599     2.521
    16   1 H        0.924     0.026     2.637     2.540
    17   1 H        0.924     0.030     2.580     2.512
    18   1 H        0.924     0.028     2.612     2.527
    19   1 H        0.924     0.028     2.618     2.530
    20   1 H        0.924     0.032     2.561     2.502
    21   1 H        0.924     0.028     2.616     2.529
    22   1 H        0.924     0.028     2.618     2.530
    23   1 H        0.924     0.032     2.564     2.504
    24   1 H        0.925     0.032     2.565     2.504
    25   1 H        0.925     0.032     2.563     2.504
    26   1 H        0.925     0.032     2.558     2.501

 Mol. C6AA /au·bohr⁶  :       4383.040587
 Mol. C8AA /au·bohr⁸  :      90689.460307
 Mol. α(0) /au        :         98.481965


Wiberg/Mayer (AO) data.
largest (>0.10) Wiberg bond orders for each atom

 ---------------------------------------------------------------------------
     #   Z sym  total        # sym  WBO       # sym  WBO       # sym  WBO
 ---------------------------------------------------------------------------
     1   6 C    3.997 --     2 C    1.019     9 H    0.988    11 H    0.988
                            10 H    0.988
     2   6 C    3.998 --     1 C    1.019     3 C    1.008    13 H    0.979
                            12 H    0.978
     3   6 C    3.998 --     4 C    1.008     2 C    1.008    15 H    0.977
                            14 H    0.975
     4   6 C    3.998 --     3 C    1.008     5 C    1.007    16 H    0.977
                            17 H    0.976
     5   6 C    3.997 --     6 C    1.007     4 C    1.007    18 H    0.977
                            19 H    0.977
     6   6 C    3.997 --     7 C    1.009     5 C    1.007    21 H    0.977
                            20 H    0.975
     7   6 C    3.998 --     8 C    1.019     6 C    1.009    22 H    0.978
                            23 H    0.977
     8   6 C    3.997 --     7 C    1.019    26 H    0.988    25 H    0.988
                            24 H    0.988
     9   1 H    0.999 --     1 C    0.988
    10   1 H    0.999 --     1 C    0.988
    11   1 H    0.999 --     1 C    0.988
    12   1 H    0.999 --     2 C    0.978
    13   1 H    0.999 --     2 C    0.979
    14   1 H    0.999 --     3 C    0.975
    15   1 H    0.999 --     3 C    0.977
    16   1 H    0.999 --     4 C    0.977
    17   1 H    0.999 --     4 C    0.976
    18   1 H    0.999 --     5 C    0.977
    19   1 H    0.999 --     5 C    0.977
    20   1 H    0.999 --     6 C    0.975
    21   1 H    0.999 --     6 C    0.977
    22   1 H    0.999 --     7 C    0.978
    23   1 H    0.999 --     7 C    0.977
    24   1 H    0.999 --     8 C    0.988
    25   1 H    0.999 --     8 C    0.988
    26   1 H    0.999 --     8 C    0.988
 ---------------------------------------------------------------------------

Topologies differ in total number of bonds
Writing topology from bond orders to xtbtopo.mol

molecular dipole:
                 x           y           z       tot (Debye)
 q only:       -0.002      -0.004      -0.015
   full:       -0.001      -0.004      -0.011       0.030
molecular quadrupole (traceless):
                xx          xy          yy          xz          yz          zz
 q only:       -0.080       0.019       0.016      -0.060       0.078       0.064
  q+dip:       -0.784      -0.308       0.691      -0.087      -0.267       0.093
   full:       -0.377      -0.140       0.320      -0.057      -0.125       0.057

           -------------------------------------------------
          |                Geometry Summary                 |
           -------------------------------------------------

      molecular mass/u    :      114.2288207
   center of mass at/Å    :        0.0012287       0.0019611      -0.0033928
  moments of inertia/u·Å² :        0.1496281E+03   0.6743130E+03   0.7533241E+03
rotational constants/cm⁻¹ :        0.1126635E+00   0.2499971E-01   0.2237766E-01

 * 25 selected distances

     #   Z          #   Z                                           value/Å
     1   6 C        2   6 C                                       1.5236598
     2   6 C        3   6 C                                       1.5269703
     3   6 C        4   6 C                                       1.5269059
     4   6 C        5   6 C                                       1.5296824 (max)
     5   6 C        6   6 C                                       1.5295316
     6   6 C        7   6 C                                       1.5269565
     7   6 C        8   6 C                                       1.5240155
     1   6 C        9   1 H                                       1.0880283
     1   6 C       10   1 H                                       1.0876540 (min)
     1   6 C       11   1 H                                       1.0880566
     2   6 C       12   1 H                                       1.0927269
     2   6 C       13   1 H                                       1.0928264
     3   6 C       14   1 H                                       1.0914011
     3   6 C       15   1 H                                       1.0929529
     4   6 C       16   1 H                                       1.0935881
     4   6 C       17   1 H                                       1.0914909
     5   6 C       18   1 H                                       1.0932723
     5   6 C       19   1 H                                       1.0933243
     6   6 C       20   1 H                                       1.0913918
     6   6 C       21   1 H                                       1.0935279
     7   6 C       22   1 H                                       1.0927559
     7   6 C       23   1 H                                       1.0912210
     8   6 C       24   1 H                                       1.0877401
     8   6 C       25   1 H                                       1.0880968
     8   6 C       26   1 H                                       1.0881139

 * 2 distinct bonds (by element types)

   Z      Z             #   av. dist./Å        max./Å        min./Å
   1 H    6 C          18     1.0910094     1.0935881     1.0876540
   6 C    6 C           7     1.5268174     1.5296824     1.5236598

           -------------------------------------------------
          |               Frequency Printout                |
           -------------------------------------------------
 projected vibrational frequencies (cm⁻¹)
eigval :       -0.00    -0.00     0.00     0.00     0.00     0.00
eigval :       33.75    62.47    69.31   103.56   151.64   202.44
eigval :      227.75   234.13   265.65   295.36   399.80   417.41
eigval :      498.92   758.18   780.23   808.98   857.40   890.59
eigval :      920.91   944.62   956.12   990.23  1048.90  1069.31
eigval :     1084.52  1095.57  1113.46  1147.89  1154.90  1161.06
eigval :     1217.14  1230.39  1258.69  1278.11  1281.94  1286.68
eigval :     1292.01  1311.08  1350.29  1363.70  1374.52  1378.34
eigval :     1416.73  1416.95  1489.76  1493.16  1497.71  1500.60
eigval :     1502.34  1504.54  1505.46  1506.00  1508.17  1508.91
eigval :     2954.10  2954.29  2956.40  2958.52  2967.50  2970.32
eigval :     2974.68  2976.45  2984.91  2987.55  2991.70  2995.35
eigval :     3027.93  3028.92  3030.41  3031.30  3036.23  3037.20
 reduced masses (amu)
   1:  9.97   2: 10.01   3:  9.52   4:  9.13   5:  9.90   6:  9.92   7:  8.60   8:  5.72
   9:  5.95  10:  8.11  11:  8.29  12:  7.03  13:  3.01  14:  2.68  15:  6.79  16:  7.87
  17:  8.53  18:  8.63  19:  8.16  20:  2.32  21:  2.03  22:  2.86  23:  3.58  24:  6.61
  25:  5.16  26:  4.46  27:  4.96  28:  4.93  29:  6.42  30:  4.02  31:  7.53  32:  8.43
  33:  7.54  34:  8.11  35:  7.59  36:  7.05  37:  5.17  38:  4.52  39:  3.52  40:  3.32
  41:  2.33  42:  1.85  43:  2.44  44:  3.41  45:  4.29  46:  4.66  47:  5.16  48:  5.48
  49:  3.18  50:  3.17  51:  1.88  52:  1.97  53:  1.89  54:  1.84  55:  1.83  56:  1.92
  57:  1.54  58:  1.54  59:  1.66  60:  1.66  61:  1.82  62:  1.95  63:  1.86  64:  1.91
  65:  1.78  66:  1.81  67:  1.56  68:  1.49  69:  1.69  70:  1.55  71:  1.72  72:  1.59
  73:  1.96  74:  1.96  75:  1.92  76:  1.91  77:  1.27  78:  1.28
 IR intensities (km·mol⁻¹)
   1:  0.00   2:  0.00   3:  0.00   4:  0.00   5:  0.00   6:  0.00   7:  0.00   8:  0.01
   9:  0.01  10:  0.02  11:  0.13  12:  0.03  13:  0.07  14:  0.02  15:  0.19  16:  0.33
  17:  0.06  18:  0.03  19:  0.80  20: 13.48  21:  8.34  22:  0.67  23:  0.83  24:  0.60
  25:  2.39  26:  4.13  27:  4.75  28:  1.69  29:  0.15  30:  1.59  31:  0.84  32:  0.41
  33:  0.78  34:  0.14  35:  1.99  36:  0.51  37:  0.40  38:  0.51  39:  0.19  40:  0.04
  41:  0.16  42:  0.13  43:  0.39  44:  1.25  45:  0.16  46:  3.64  47:  0.09  48:  1.73
  49:  0.78  50:  0.71  51:  0.25  52:  0.48  53:  0.81  54:  0.25  55:  0.22  56:  0.03
  57:  2.31  58:  2.45  59:  1.25  60:  0.97  61:  6.74  62: 21.04  63: 22.62  64:  5.64
  65: 11.52  66: 60.28  67:101.31  68: 15.79  69: 40.64  70:  2.62  71: 57.51  72:152.24
  73: 60.03  74: 65.60  75: 39.91  76: 86.86  77: 34.79  78: 29.25
 Raman intensities (amu)
   1:  0.00   2:  0.00   3:  0.00   4:  0.00   5:  0.00   6:  0.00   7:  0.00   8:  0.00
   9:  0.00  10:  0.00  11:  0.00  12:  0.00  13:  0.00  14:  0.00  15:  0.00  16:  0.00
  17:  0.00  18:  0.00  19:  0.00  20:  0.00  21:  0.00  22:  0.00  23:  0.00  24:  0.00
  25:  0.00  26:  0.00  27:  0.00  28:  0.00  29:  0.00  30:  0.00  31:  0.00  32:  0.00
  33:  0.00  34:  0.00  35:  0.00  36:  0.00  37:  0.00  38:  0.00  39:  0.00  40:  0.00
  41:  0.00  42:  0.00  43:  0.00  44:  0.00  45:  0.00  46:  0.00  47:  0.00  48:  0.00
  49:  0.00  50:  0.00  51:  0.00  52:  0.00  53:  0.00  54:  0.00  55:  0.00  56:  0.00
  57:  0.00  58:  0.00  59:  0.00  60:  0.00  61:  0.00  62:  0.00  63:  0.00  64:  0.00
  65:  0.00  66:  0.00  67:  0.00  68:  0.00  69:  0.00  70:  0.00  71:  0.00  72:  0.00
  73:  0.00  74:  0.00  75:  0.00  76:  0.00  77:  0.00  78:  0.00
 output can be read by thermo (or use thermo option).
 writing <g98.out> molden fake output.
 recommended (thermochemical) frequency scaling factor: 1.0
           -------------------------------------------------
          |             Thermodynamic Functions             |
           -------------------------------------------------

Molecule has no symmetry elements
It seems to be the C1 point group
c1  symmetry found (for desy threshold:  0.10E+00) used in thermo

          ...................................................
          :                      SETUP                      :
          :.................................................:
          :  # frequencies                          72      :
          :  # imaginary freq.                       0      :
          :  linear?                             false      :
          :  only rotor calc.                    false      :
          :  symmetry                               c1      :
          :  rotational number                       1      :
          :  scaling factor                  1.0000000      :
          :  rotor cutoff                   50.0000000 cm⁻¹ :
          :  imag. cutoff                  -20.0000000 cm⁻¹ :
          :.................................................:

    mode    ω/cm⁻¹     T·S(HO)/kcal·mol⁻¹    T·S(FR)/kcal·mol⁻¹   T·S(vib)
   ------------------------------------------------------------------------
       1     33.75    -1.66838 ( 17.19%)    -1.17270 ( 82.81%)    -1.25792
       2     62.47    -1.30513 ( 70.91%)    -0.99041 ( 29.09%)    -1.21358
       3     69.31    -1.24414 ( 78.69%)    -0.95968 ( 21.31%)    -1.18352
       4    103.56    -1.00959 ( 94.85%)    -0.84076 (  5.15%)    -1.00089
       5    151.64    -0.79057 ( 98.83%)    -0.72782 (  1.17%)    -0.78984
       6    202.44    -0.62933 ( 99.63%)    -0.64223 (  0.37%)    -0.62938
       7    227.75    -0.56548 ( 99.77%)    -0.60734 (  0.23%)    -0.56557
       8    234.13    -0.55069 ( 99.79%)    -0.59915 (  0.21%)    -0.55079
       9    265.65    -0.48430 ( 99.87%)    -0.56175 (  0.13%)    -0.48440
      10    295.36    -0.43025 ( 99.92%)    -0.53034 (  0.08%)    -0.43033
   ------------------------------------------------------------------------

   temp. (K)  partition function   enthalpy   heat capacity  entropy
                                   cal/mol     cal/K/mol   cal/K/mol   J/K/mol
 298.15  VIB  0.523E+04             5074.196     31.163     32.117
         ROT  0.666E+06              888.752      2.981     29.628
         INT  0.348E+10             5962.949     34.143     61.745
         TR   0.118E+28             1481.254      4.968     40.096
         TOT                        7444.2024    39.1116   101.8411   426.1032

       T/K    H(0)-H(T)+PV         H(T)/Eh          T*S/Eh         G(T)/Eh
   ------------------------------------------------------------------------
    298.15    0.118631E-01    0.255814E+00    0.483880E-01    0.207426E+00
   ------------------------------------------------------------------------

         :::::::::::::::::::::::::::::::::::::::::::::::::::::
         ::                  THERMODYNAMIC                  ::
         :::::::::::::::::::::::::::::::::::::::::::::::::::::
         :: total free energy         -26.113458051737 Eh   ::
         ::.................................................::
         :: total energy              -26.320884059257 Eh   ::
         :: zero point energy           0.243950912870 Eh   ::
         :: G(RRHO) w/o ZPVE           -0.036524905350 Eh   ::
         :: G(RRHO) contrib.            0.207426007520 Eh   ::
         :::::::::::::::::::::::::::::::::::::::::::::::::::::
 
 normal mode %tage of torsion character
   1:  0.00   2:  0.00   3:  0.00   4:  0.00   5:  0.00   6:  0.00   7:  0.44   8:  0.70
   9:  0.48  10:  0.51  11:  0.41  12:  0.55  13:  0.75  14:  0.86  15:  0.57  16:  0.40
  17:  0.12  18:  0.15  19:  0.23  20:  0.57  21:  0.49  22:  0.51  23:  0.50  24:  0.24
  25:  0.27  26:  0.29  27:  0.22  28:  0.27  29:  0.13  30:  0.37  31:  0.09  32:  0.09
  33:  0.12  34:  0.06  35:  0.21  36:  0.40  37:  0.46  38:  0.42  39:  0.20  40:  0.16
  41:  0.15  42:  0.24  43:  0.06  44:  0.10  45:  0.07  46:  0.09  47:  0.07  48:  0.07
  49:  0.00  50:  0.00  51:  0.65  52:  0.64  53:  0.65  54:  0.63  55:  0.65  56:  0.62
  57:  0.92  58:  0.91  59:  0.89  60:  0.82  61:  0.28  62:  0.23  63:  0.31  64:  0.35
  65:  0.09  66:  0.05  67:  0.01  68:  0.02  69:  0.02  70:  0.03  71:  0.02  72:  0.05
  73:  0.05  74:  0.08  75:  0.03  76:  0.03  77:  0.00  78:  0.00
 recommended # of modes for mode following           4

optimized geometry written to: xtbopt.xyz


           -------------------------------------------------
          | TOTAL ENERGY              -26.320884059257 Eh   |
          | TOTAL ENTHALPY            -26.065070054688 Eh   |
          | TOTAL FREE ENERGY         -26.113458051737 Eh   |
          | GRADIENT NORM               0.000496546538 Eh/α |
          | HOMO-LUMO GAP              13.024584698927 eV   |
           -------------------------------------------------

------------------------------------------------------------------------
 * finished run on 2024/04/20 at 10:58:49.061     
------------------------------------------------------------------------
 total:
 * wall-time:     0 d,  0 h,  0 min,  0.982 sec
 *  cpu-time:     0 d,  0 h,  0 min,  2.642 sec
 * ratio c/w:     2.690 speedup
 SCF:
 * wall-time:     0 d,  0 h,  0 min,  0.045 sec
 *  cpu-time:     0 d,  0 h,  0 min,  0.089 sec
 * ratio c/w:     1.987 speedup
 ANC optimizer:
 * wall-time:     0 d,  0 h,  0 min,  0.334 sec
 *  cpu-time:     0 d,  0 h,  0 min,  0.664 sec
 * ratio c/w:     1.988 speedup
 analytical hessian:
 * wall-time:     0 d,  0 h,  0 min,  0.540 sec
 *  cpu-time:     0 d,  0 h,  0 min,  1.762 sec
 * ratio c/w:     3.263 speedup

