26
 energy: -26.319087615035 gnorm: 0.026410157696 xtb: 6.6.1 (8d0f1dd)
C            3.55972800000000        0.11479800000000       -1.20737600000000
C            2.63353500000000        0.58860500000000       -0.09856900000000
C            1.40406400000000       -0.30572000000000        0.06875600000000
C            0.48090900000000        0.15666100000000        1.19656700000000
C           -0.73535700000000       -0.75038500000000        1.40703700000000
C           -1.69269800000000       -0.81133500000000        0.21239100000000
C           -2.32986400000000        0.53595100000000       -0.13356000000000
C           -3.33546900000000        0.43501300000000       -1.27007400000000
H            3.92661300000000       -0.89471200000000       -1.01070600000000
H            4.43097700000000        0.76450800000000       -1.32111600000000
H            3.04387800000000        0.08737900000000       -2.16937000000000
H            3.17842700000000        0.63842700000000        0.85396500000000
H            2.30781900000000        1.61984900000000       -0.29185700000000
H            0.85176500000000       -0.34311800000000       -0.87772300000000
H            1.72206600000000       -1.33934200000000        0.25385900000000
H            1.06192200000000        0.22230500000000        2.12650600000000
H            0.15209200000000        1.18425600000000        1.00066200000000
H           -0.38554600000000       -1.76207700000000        1.65213700000000
H           -1.29430800000000       -0.41752200000000        2.29184200000000
H           -1.17015800000000       -1.20469300000000       -0.66779300000000
H           -2.49015300000000       -1.53971600000000        0.41241500000000
H           -2.81180600000000        0.94966200000000        0.76321200000000
H           -1.54555400000000        1.25914900000000       -0.39424400000000
H           -3.79599500000000        1.39936700000000       -1.49840800000000
H           -4.13921000000000       -0.26248000000000       -1.02551300000000
H           -2.86228300000000        0.07267400000000       -2.18535300000000
26
 energy: -26.320573458947 gnorm: 0.011573799644 xtb: 6.6.1 (8d0f1dd)
C            3.55259894897262        0.11162466964127       -1.20364493498275
C            2.63025656111490        0.58921099802489       -0.09279468560778
C            1.40481191312456       -0.30903311520190        0.06503485713911
C            0.48346247159435        0.15939300510963        1.18969708054029
C           -0.73272824979374       -0.74511729267608        1.39779197133712
C           -1.69109088723668       -0.80844175965631        0.20713657534864
C           -2.32800025356290        0.53867044221877       -0.13114528256843
C           -3.33310560309190        0.42814136039790       -1.26666374584285
H            3.91759911118929       -0.89474673478378       -0.99914491994916
H            4.41615843031985        0.76839210432561       -1.30515068033140
H            3.03147744574426        0.09167984258690       -2.16076573942187
H            3.18128209861537        0.62178288032307        0.85368352178629
H            2.30236467367864        1.61336010397662       -0.30342944023846
H            0.85474836363746       -0.32523609804502       -0.88026628219417
H            1.72900806722384       -1.33601856815103        0.26504136585774
H            1.05723104579453        0.19840823134550        2.12275556336403
H            0.15193784559109        1.18218383918878        0.98828267225197
H           -0.38420219118994       -1.75841738068012        1.62644959778760
H           -1.28652162258731       -0.39735824780728        2.27713948574918
H           -1.16544490825221       -1.19407670284031       -0.67116546097002
H           -2.48679058913646       -1.52745834740182        0.43306235368215
H           -2.82208149790124        0.93862644454330        0.76146460329131
H           -1.54797349498543        1.25291261420966       -0.41197406913298
H           -3.78346110317113        1.39628760495283       -1.48396282695957
H           -4.13365008229614       -0.26655185344500       -1.01290710431766
H           -2.85249249339570        0.06928595984394       -2.17683747561833
26
 energy: -26.320780032491 gnorm: 0.002209271806 xtb: 6.6.1 (8d0f1dd)
C            3.55149616784514        0.11060702640385       -1.20216075854850
C            2.62960570413256        0.58964251036593       -0.08888032419654
C            1.40539451443589       -0.30962155500831        0.06287643701529
C            0.48591465387409        0.15993636756979        1.18734839769561
C           -0.73105212941053       -0.74320479205053        1.39378972407369
C           -1.69120228945164       -0.80602504587759        0.20516683956335
C           -2.32739220222551        0.54069658227322       -0.13082073368580
C           -3.33488339788891        0.42492542813949       -1.26627768486862
H            3.91224126579252       -0.89479393103614       -0.99422972521151
H            4.41168671083644        0.76972103131716       -1.29841589056740
H            3.02551691764587        0.09374099054416       -2.15484413403923
H            3.18169275927453        0.61382420503611        0.85416401347023
H            2.30102202011267        1.60960283908335       -0.30483067681036
H            0.85890252906958       -0.31687290792013       -0.88194988876152
H            1.73133489773306       -1.33265337770813        0.26812018263465
H            1.05620370753298        0.18565336314493        2.12042216037160
H            0.15604127845085        1.18034695818700        0.98385435164220
H           -0.38293055170980       -1.75621269407732        1.61397013570817
H           -1.28171149168103       -0.38804176772425        2.26939940277893
H           -1.16718357257934       -1.18805122774614       -0.67279251246661
H           -2.48527037573120       -1.51957012264182        0.44327729054007
H           -2.82526888441137        0.93380292469400        0.75929364618143
H           -1.55156843947221        1.25154004357998       -0.42038347902405
H           -3.78160692375517        1.39360340322681       -1.48041683217449
H           -4.13126245514020       -0.26964855361651       -1.00628018196284
H           -2.85032641327930        0.06455630184110       -2.17171275935776
26
 energy: -26.320792115019 gnorm: 0.000580507608 xtb: 6.6.1 (8d0f1dd)
C            3.55252793570935        0.11078417513841       -1.20181362428026
C            2.63068297133458        0.58984136683756       -0.08734504126538
C            1.40625243709506       -0.30967819524863        0.06222540050559
C            0.48711952101729        0.15983102913274        1.18705941541188
C           -0.73082223782768       -0.74259435445423        1.39299065393106
C           -1.69196442412486       -0.80497229776912        0.20465822444650
C           -2.32812780556368        0.54190038556495       -0.13091281063502
C           -3.33685675814873        0.42365820464911       -1.26643203505613
H            3.91166678464027       -0.89494369025381       -0.99398208764829
H            4.41278713229332        0.76933447932923       -1.29781103581313
H            3.02519971047788        0.09473524804965       -2.15347517803822
H            3.18238067002656        0.61222869151812        0.85543107706698
H            2.30264226989626        1.60971406717796       -0.30226328781201
H            0.86065783526696       -0.31541370269166       -0.88270915510204
H            1.73148229310588       -1.33272005706881        0.26645617817015
H            1.05734729177795        0.18305379861354        2.11966188394727
H            0.15879603681576        1.18065396183101        0.98478934452320
H           -0.38293529109493       -1.75545733154707        1.61205750104186
H           -1.28084398690598       -0.38722833229115        2.26835257410356
H           -1.16947950489719       -1.18760163307046       -0.67362412906576
H           -2.48585004996984       -1.51740664454854        0.44452469185275
H           -2.82575598918519        0.93508528331946        0.75876965562942
H           -1.55346525233579        1.25274866268899       -0.42208672670897
H           -3.78394363120157        1.39156894267483       -1.48198432270272
H           -4.13205167031987       -0.27102649590393       -1.00412242462099
H           -2.85205228788182        0.06140843832186       -2.17072774188129
26
 energy: -26.320806219506 gnorm: 0.002352937620 xtb: 6.6.1 (8d0f1dd)
C            3.55635666759000        0.11157461410580       -1.20061708324238
C            2.63504738575254        0.58948917006743       -0.08337037463327
C            1.40872504239651       -0.30889909794580        0.06029892101275
C            0.49027114199411        0.15924488377251        1.18644575197629
C           -0.73036213900557       -0.74083930541705        1.39095192577115
C           -1.69438750440332       -0.80140841338956        0.20385203127597
C           -2.33109547149147        0.54513933437304       -0.13230452173630
C           -3.34336679782794        0.41966583102060       -1.26639375818479
H            3.91176579379499       -0.89553105490130       -0.99449700079691
H            4.41774995281313        0.76801400857437       -1.29618528528519
H            3.02631038482344        0.09866137410174       -2.15047007381842
H            3.18574878254067        0.60659640344434        0.85953472390805
H            2.30931734523228        1.61051602720435       -0.29379186297479
H            0.86497155701582       -0.31050172621066       -0.88535732066583
H            1.73153957615771       -1.33308958254385        0.26054257136260
H            1.06098663900442        0.17657552680410        2.11824297908037
H            0.16624725849497        1.18201483312344        0.98831060838055
H           -0.38356591754145       -1.75399137844248        1.60798019356307
H           -1.27898488790826       -0.38583191460581        2.26664191870709
H           -1.17592384624855       -1.18637110137835       -0.67557421685986
H           -2.48834524249497       -1.51176126668288        0.44719271974039
H           -2.82745745575905        0.94012256703038        0.75670114568495
H           -1.55894837424969        1.25651962819214       -0.42755087619662
H           -3.79222813538671        1.38515170612783       -1.48754432487673
H           -4.13601204374366       -0.27493706817826       -0.99714389637186
H           -2.85896571154997        0.05138000175394       -2.16820789482030
26
 energy: -26.320812890715 gnorm: 0.001733730679 xtb: 6.6.1 (8d0f1dd)
C            3.55773483703633        0.11180395367578       -1.20001057171602
C            2.63687412491926        0.58876250594309       -0.08234316698232
C            1.40930110887257       -0.30818468594307        0.05962235408435
C            0.49093330265374        0.15916513282597        1.18615933784838
C           -0.73032524100561       -0.74001694607533        1.39020980333944
C           -1.69501054886513       -0.80018127941531        0.20375387890797
C           -2.33230291717971        0.54585427700243       -0.13325143834669
C           -3.34558382534828        0.41805316885565       -1.26585335087639
H            3.91263433903927       -0.89587375489159       -0.99541598296923
H            4.41978416817570        0.76763293147608       -1.29488189572636
H            3.02786958441330        0.10063567049503       -2.15006081479607
H            3.18744632985272        0.60352866079798        0.86088739549382
H            2.31257451399339        1.61082957017229       -0.29080144078425
H            0.86575573445322       -0.30785583275761       -0.88633373551589
H            1.73102268408983       -1.33320782057595        0.25831705926757
H            1.06181419186729        0.17508073766870        2.11810882634107
H            0.16773037005802        1.18258119223536        0.98929648070816
H           -0.38421687245305       -1.75365344682550        1.60689979063102
H           -1.27845062448418       -0.38518106052109        2.26649264609050
H           -1.17720792466952       -1.18577061881222       -0.67593811024770
H           -2.48912155496006       -1.51042845179324        0.44779355661654
H           -2.82800355115457        0.94204000409020        0.75579288253343
H           -1.56056781601258        1.25727529234651       -0.43004864020239
H           -3.79497675694756        1.38289185882092       -1.48902453216363
H           -4.13804680870536       -0.27594789018918       -0.99422010744552
H           -2.86226684763906        0.04767083139409       -2.16746322408983
26
 energy: -26.320828243688 gnorm: 0.002016861687 xtb: 6.6.1 (8d0f1dd)
C            3.56692125584622        0.11305599118096       -1.19575390166121
C            2.64880901381923        0.58307767760887       -0.07510552349536
C            1.41193654097604       -0.30310596318683        0.05454482229212
C            0.49454061147557        0.15979965409074        1.18362243154044
C           -0.73001078393204       -0.73438485894202        1.38543810755179
C           -1.69814934989717       -0.79291541660213        0.20275509913520
C           -2.33944552975308        0.54975313254250       -0.13978055521426
C           -3.36057924992844        0.40723978188568       -1.26143970196094
H            3.91811143404904       -0.89866701065577       -1.00245452037600
H            4.43332285715546        0.76514313972633       -1.28370992740716
H            3.03938525935804        0.11487099114386       -2.14769229963365
H            3.19834264925225        0.58068772631632        0.87003624498698
H            2.33515789604427        1.61211723376225       -0.27024567462253
H            0.86994457456125       -0.28833644821196       -0.89309659793035
H            1.72508871919651       -1.33364699933882        0.24304929464574
H            1.06605235535354        0.16749149065702        2.11641006924392
H            0.17546778836663        1.18651535360491        0.99373507630592
H           -0.38814576087233       -1.75074343571309        1.60036264344212
H           -1.27487218374481       -0.37968164488436        2.26491830051548
H           -1.18343490619591       -1.18146465104460       -0.67810558339147
H           -2.49250311909660       -1.50292661897244        0.45096380497479
H           -2.82970708092466        0.95372093751458        0.74979919320457
H           -1.57046581212726        1.26055263667121       -0.44790986871764
H           -3.81229630925609        1.36857150679238       -1.49693744994570
H           -4.15230240513401       -0.28191925964287       -0.97352197295573
H           -2.88577446459171        0.02269905369731       -2.16219451052711
26
 energy: -26.320833904066 gnorm: 0.001373011341 xtb: 6.6.1 (8d0f1dd)
C            3.56672846436755        0.11286805623500       -1.19578712216939
C            2.64821116948032        0.58283639008450       -0.07516185700440
C            1.41120137334553       -0.30306306396439        0.05442094628239
C            0.49390146291592        0.16051525535384        1.18332232479854
C           -0.73004262522873       -0.73449951069880        1.38579952102648
C           -1.69741820032829       -0.79390577392785        0.20245600483236
C           -2.33860806802607        0.54898387760820       -0.13962706489394
C           -3.36021902849895        0.40773218354050       -1.26111713999746
H            3.91756775052974       -0.89890221407079       -1.00269341529636
H            4.43308072090231        0.76498447612140       -1.28289854302007
H            3.03956227252666        0.11507635849911       -2.14781179735543
H            3.19750236213164        0.58025871232059        0.86981038062108
H            2.33470648032895        1.61161359600214       -0.27043307487302
H            0.86938488033307       -0.28807816064899       -0.89305249349311
H            1.72380738914467       -1.33346383520064        0.24319110467407
H            1.06535560323033        0.16954912378227        2.11586189666842
H            0.17391881609786        1.18655832457954        0.99229440170425
H           -0.38751204720883       -1.75031725409233        1.60135662689076
H           -1.27535261859065       -0.37939958870232        2.26463749345560
H           -1.18180945821751       -1.18181039485567       -0.67800753881375
H           -2.49141439233250       -1.50421764830491        0.45005253107776
H           -2.82835149115796        0.95267297174227        0.75014248634166
H           -1.56958332967824        1.25937637106258       -0.44790746020445
H           -3.81121482638102        1.36955001082679       -1.49547167004205
H           -4.15217349239222       -0.28105517928593       -0.97356679802390
H           -2.88583516729364        0.02364091599389       -2.16212274318610
26
 energy: -26.320853178315 gnorm: 0.001870949834 xtb: 6.6.1 (8d0f1dd)
C            3.56992362307549        0.11196212813903       -1.19355272756021
C            2.64992999217827        0.57845652757669       -0.07106142420621
C            1.40670103478938       -0.29994017992539        0.05017946001511
C            0.49067668217273        0.16697787070634        1.17906813311162
C           -0.72990123217352       -0.73250852006008        1.38603256050323
C           -1.69321925169741       -0.79838670518157        0.19929321960789
C           -2.33522460305374        0.54475938255728       -0.14173273284284
C           -3.36569838198612        0.40586428348661       -1.25632791155603
H            3.91466156612109       -0.90290933473408       -1.00785873221431
H            4.43891135227076        0.76132441708755       -1.27039876652765
H            3.04624713172703        0.12498403906308       -2.14705327843689
H            3.19674273663993        0.56472157875251        0.87403346299219
H            2.34338210436865        1.60939313780487       -0.26003354730203
H            0.86736959121984       -0.27547746158432       -0.89745209320363
H            1.70991778019572       -1.33271012905829        0.23550684920269
H            1.06262223178295        0.18270976160693        2.10999529471295
H            0.16573542912258        1.18971110144972        0.98261319968402
H           -0.38367020038577       -1.74517371281968        1.60646833570728
H           -1.27780862529505       -0.37438820847780        2.26105630420364
H           -1.17233191776122       -1.18318282568230       -0.67871453159265
H           -2.48471713560712       -1.51095408749806        0.44412672335768
H           -2.81723253171998        0.95044311772481        0.75040164639915
H           -1.56723449324475        1.25179140668843       -0.45748792890685
H           -3.81200038322399        1.37006545545747       -1.48809505621807
H           -4.15908780551461       -0.27761697161746       -0.96212562042305
H           -2.89930069400121        0.01758792853771       -2.15919383850710
26
 energy: -26.320866526661 gnorm: 0.001319414183 xtb: 6.6.1 (8d0f1dd)
C            3.57516661868324        0.11205827423825       -1.19045179399035
C            2.65608908206070        0.57450836379890       -0.06566043147668
C            1.40601270264362       -0.29575005291863        0.04584302337369
C            0.49062387154866        0.17031034322324        1.17565904950113
C           -0.72956265086637       -0.72925524173639        1.38383317231336
C           -1.69269649781278       -0.79761305354870        0.19721547501962
C           -2.33642499100379        0.54422756156515       -0.14560433646383
C           -3.37488388099903        0.40037780393724       -1.25224710171792
H            3.91385073606734       -0.90646595430774       -1.01276092179153
H            4.44813789999698        0.75706643637447       -1.26025440635689
H            3.05331071132787        0.13629681956353       -2.14493423822308
H            3.20112823802086        0.54810936976455        0.88061285072139
H            2.35732674740154        1.60971974739563       -0.24557574873728
H            0.86910712449973       -0.26097682584928       -0.90319157284157
H            1.70128294459675       -1.33222252778369        0.22492086598689
H            1.06360339935168        0.18570037853360        2.10614621778434
H            0.16547487338747        1.19322541351500        0.97996956879023
H           -0.38285461083604       -1.74145726205536        1.60619383175673
H           -1.27784074531293       -0.37001111974053        2.25830598556540
H           -1.17126862261438       -1.18301092765142       -0.68029170309839
H           -2.48351792932552       -1.51085426822817        0.44294547066539
H           -2.81220342512779        0.95435010196585        0.74807295131682
H           -1.57016111934388        1.24968247760432       -0.46978940242480
H           -3.82008871514736        1.36417123179427       -1.48815885325405
H           -4.16836160060082       -0.27875930427102       -0.94746645239827
H           -2.91585616059587        0.00407621481695       -2.15564450002045
26
 energy: -26.320880252792 gnorm: 0.001380388502 xtb: 6.6.1 (8d0f1dd)
C            3.58800781722673        0.11187122048617       -1.18163796370341
C            2.67238502729800        0.56473403455034       -0.05083858686878
C            1.40454673872382       -0.28334059543492        0.03431833257144
C            0.49018168819280        0.17993887949559        1.16614960363730
C           -0.72814896794847       -0.72077085779848        1.37715418476096
C           -1.69119492996428       -0.79634550633663        0.19126233261142
C           -2.33903105655396        0.54205354383198       -0.15632636651693
C           -3.39896281907645        0.38589596537031       -1.24098461197073
H            3.90809598957522       -0.91681263567844       -1.02572492532589
H            4.47313180551126        0.74254191243891       -1.23319516239718
H            3.07106396783496        0.16738909416700       -2.13813211183292
H            3.21229649917064        0.50477405548134        0.89808981488597
H            2.39479182621975        1.61091395104256       -0.20633046979219
H            0.87523496062857       -0.22154774859878       -0.91867417215040
H            1.67909562277033       -1.32922675543333        0.19648904190608
H            1.06589166189755        0.19454846780468        2.09576268412394
H            0.16391166981686        1.20338004945820        0.97272598551412
H           -0.37966481740829       -1.73164576821580        1.60490342493232
H           -1.27787780736248       -0.35888146943811        2.25013630693545
H           -1.16888314838299       -1.18428893730646       -0.68493511868231
H           -2.48055116284420       -1.51094544112910        0.44022345411946
H           -2.79774297859021        0.96424331853956        0.74141571717921
H           -1.57743560975694        1.24294809641532       -0.50297201507011
H           -3.84143248749066        1.34865071580231       -1.48712145204865
H           -4.19217242040112       -0.28142058743206       -0.90830514126596
H           -2.96014306908662       -0.03115300208215       -2.14576578555236
26
 energy: -26.320884059237 gnorm: 0.000496308642 xtb: 6.6.1 (8d0f1dd)
C            3.58585806863263        0.11161419282510       -1.18246457878309
C            2.67036509283146        0.56640810051072       -0.05260883066440
C            1.40510277938054       -0.28382774327441        0.03598037077151
C            0.48990819222356        0.17905793516474        1.16717309207003
C           -0.72814396890919       -0.72205433438576        1.37758552826526
C           -1.69132952369567       -0.79696186503043        0.19178249813286
C           -2.33842316725077        0.54182514498436       -0.15537006686396
C           -3.39573221233722        0.38788415295654       -1.24211872632419
H            3.90631454752118       -0.91602928502487       -1.02415528041553
H            4.47059690209888        0.74191672576605       -1.23674965847208
H            3.06845137782292        0.16421211424915       -2.13817929705337
H            3.21052755304435        0.51097502446120        0.89565465599244
H            2.39024843800885        1.61076663124547       -0.21109913625091
H            0.87557892949209       -0.22597016655370       -0.91660193038552
H            1.68264519932834       -1.32812387563787        0.20018024233613
H            1.06521455925129        0.19414376361858        2.09708157843172
H            0.16344216856939        1.20243954033458        0.97362157295590
H           -0.37925750166898       -1.73298997715348        1.60459103804102
H           -1.27802138669014       -0.36107071714083        2.25090299880167
H           -1.16960238354042       -1.18524340656857       -0.68467296108991
H           -2.48107335492332       -1.51116775118586        0.44081591308985
H           -2.79891253442400        0.96274388199219        0.74178776708347
H           -1.57628104809306        1.24306441850899       -0.49912266311768
H           -3.83887985063577        1.35072910094569       -1.48651218486150
H           -4.18849479634564       -0.28088525077931       -0.91313625644262
H           -2.95470807969146       -0.02595235482823       -2.14667868524725
