      -----------------------------------------------------------      
     |                   =====================                   |     
     |                           x T B                           |     
     |                   =====================                   |     
     |                         S. Grimme                         |     
     |          Mulliken Center for Theoretical Chemistry        |     
     |                    University of Bonn                     |     
      -----------------------------------------------------------      

   * xtb version 6.6.1 (8d0f1dd) compiled by 'stahn@M-Bot' on 2023-08-01

   xtb is free software: you can redistribute it and/or modify it under
   the terms of the GNU Lesser General Public License as published by
   the Free Software Foundation, either version 3 of the License, or
   (at your option) any later version.
   
   xtb is distributed in the hope that it will be useful,
   but WITHOUT ANY WARRANTY; without even the implied warranty of
   MERCHANTABILITY or FITNESS FOR A PARTICULAR PURPOSE.  See the
   GNU Lesser General Public License for more details.
   
   Cite this work as:
   * C. Bannwarth, E. Caldeweyher, S. Ehlert, A. Hansen, P. Pracht,
     J. Seibert, S. Spicher, S. Grimme, WIREs Comput. Mol. Sci., 2020, 11,
     e01493. DOI: 10.1002/wcms.1493
   
   for GFN2-xTB:
   * C. Bannwarth, S. Ehlert and S. Grimme., J. Chem. Theory Comput., 2019,
     15, 1652-1671. DOI: 10.1021/acs.jctc.8b01176
   for GFN1-xTB:
   * S. Grimme, C. Bannwarth, P. Shushkov, J. Chem. Theory Comput., 2017,
     13, 1989-2009. DOI: 10.1021/acs.jctc.7b00118
   for GFN0-xTB:
   * P. Pracht, E. Caldeweyher, S. Ehlert, S. Grimme, ChemRxiv, 2019, preprint.
     DOI: 10.26434/chemrxiv.8326202.v1
   for GFN-FF:
   * S. Spicher and S. Grimme, Angew. Chem. Int. Ed., 2020, 59, 15665-15673.
     DOI: 10.1002/anie.202004239
   
   for ALPB and GBSA implicit solvation:
   * S. Ehlert, M. Stahn, S. Spicher, S. Grimme, J. Chem. Theory Comput.,
     2021, 17, 4250-4261. DOI: 10.1021/acs.jctc.1c00471
   
   for DFT-D4:
   * E. Caldeweyher, C. Bannwarth and S. Grimme, J. Chem. Phys., 2017,
     147, 034112. DOI: 10.1063/1.4993215
   * E. Caldeweyher, S. Ehlert, A. Hansen, H. Neugebauer, S. Spicher,
     C. Bannwarth and S. Grimme, J. Chem. Phys., 2019, 150, 154122.
     DOI: 10.1063/1.5090222
   * E. Caldeweyher, J.-M. Mewes, S. Ehlert and S. Grimme, Phys. Chem. Chem. Phys.
     2020, 22, 8499-8512. DOI: 10.1039/D0CP00502A
   
   for sTDA-xTB:
   * S. Grimme and C. Bannwarth, J. Chem. Phys., 2016, 145, 054103.
     DOI: 10.1063/1.4959605
   
   in the mass-spec context:
   * V. Asgeirsson, C. Bauer and S. Grimme, Chem. Sci., 2017, 8, 4879.
     DOI: 10.1039/c7sc00601b
   * J. Koopman and S. Grimme, ACS Omega 2019, 4, 12, 15120-15133.
     DOI: 10.1021/acsomega.9b02011
   
   for metadynamics refer to:
   * S. Grimme, J. Chem. Theory Comput., 2019, 155, 2847-2862
     DOI: 10.1021/acs.jctc.9b00143
   
   for SPH calculations refer to:
   * S. Spicher and S. Grimme, J. Chem. Theory Comput., 2021, 17, 1701-1714
     DOI: 10.1021/acs.jctc.0c01306
   
   with help from (in alphabetical order)
   P. Atkinson, C. Bannwarth, F. Bohle, G. Brandenburg, E. Caldeweyher
   M. Checinski, S. Dohm, S. Ehlert, S. Ehrlich, I. Gerasimov, C. Hölzer
   A. Katbashev, J. Koopman, C. Lavigne, S. Lehtola, F. März, M. Müller,
   F. Musil, H. Neugebauer, J. Pisarek, C. Plett, P. Pracht, F. Pultar,
   J. Seibert, P. Shushkov, S. Spicher, M. Stahn, M. Steiner, T. Strunk,
   J. Stückrath, T. Rose, and J. Unsleber
   
 * started run on 2024/04/23 at 12:10:32.943     

           -------------------------------------------------
          |                Calculation Setup                |
           -------------------------------------------------

          program call               : xtb folded.xyz --gfn 2 --ohess -P 4
          coordinate file            : folded.xyz
          omp threads                :                     4

   ID    Z sym.   atoms
    1    6 C      1-13
    2    1 H      14-41

           -------------------------------------------------
          |                 G F N 2 - x T B                 |
           -------------------------------------------------

        Reference                      10.1021/acs.jctc.8b01176
      * Hamiltonian:
        H0-scaling (s, p, d)           1.850000    2.230000    2.230000
        zeta-weighting                 0.500000
      * Dispersion:
        s8                             2.700000
        a1                             0.520000
        a2                             5.000000
        s9                             5.000000
      * Repulsion:
        kExp                           1.500000    1.000000
        rExp                           1.000000
      * Coulomb:
        alpha                          2.000000
        third order                    shell-resolved
        anisotropic                    true
        a3                             3.000000
        a5                             4.000000
        cn-shift                       1.200000
        cn-exp                         4.000000
        max-rad                        5.000000


          ...................................................
          :                      SETUP                      :
          :.................................................:
          :  # basis functions                  80          :
          :  # atomic orbitals                  80          :
          :  # shells                           54          :
          :  # electrons                        80          :
          :  max. iterations                   250          :
          :  Hamiltonian                  GFN2-xTB          :
          :  restarted?                      false          :
          :  GBSA solvation                  false          :
          :  PC potential                    false          :
          :  electronic temp.          300.0000000     K    :
          :  accuracy                    1.0000000          :
          :  -> integral cutoff          0.2500000E+02      :
          :  -> integral neglect         0.1000000E-07      :
          :  -> SCF convergence          0.1000000E-05 Eh   :
          :  -> wf. convergence          0.1000000E-03 e    :
          :  Broyden damping             0.4000000          :
          ...................................................

 iter      E             dE          RMSdq      gap      omega  full diag
   1    -42.6405753 -0.426406E+02  0.248E+00   12.84       0.0  T
   2    -42.7481977 -0.107622E+00  0.133E+00   12.58       1.0  T
   3    -42.7494698 -0.127212E-02  0.706E-01   12.56       1.0  T
   4    -42.7497858 -0.315960E-03  0.856E-02   12.57       1.0  T
   5    -42.7497978 -0.120110E-04  0.442E-02   12.57       1.0  T
   6    -42.7498007 -0.289633E-05  0.424E-03   12.57       3.7  T
   7    -42.7498008 -0.108598E-06  0.149E-03   12.57      10.5  T
   8    -42.7498008 -0.139217E-07  0.304E-04   12.57      51.4  T
   9    -42.7498008 -0.310010E-09  0.140E-04   12.57     111.6  T

   *** convergence criteria satisfied after 9 iterations ***

         #    Occupation            Energy/Eh            Energy/eV
      -------------------------------------------------------------
         1        2.0000           -0.6224551             -16.9379
       ...           ...                  ...                  ...
        34        2.0000           -0.4233759             -11.5206
        35        2.0000           -0.4208559             -11.4521
        36        2.0000           -0.4187171             -11.3939
        37        2.0000           -0.4174675             -11.3599
        38        2.0000           -0.4115286             -11.1983
        39        2.0000           -0.4092365             -11.1359
        40        2.0000           -0.4066118             -11.0645 (HOMO)
        41                          0.0552375               1.5031 (LUMO)
        42                          0.0594951               1.6189
        43                          0.0771721               2.1000
        44                          0.0862847               2.3479
        45                          0.0951535               2.5893
       ...                                ...                  ...
        80                          0.3224449               8.7742
      -------------------------------------------------------------
                  HL-Gap            0.4618493 Eh           12.5676 eV
             Fermi-level           -0.1756872 Eh           -4.7807 eV

 SCC (total)                   0 d,  0 h,  0 min,  0.035 sec
 SCC setup                      ...        0 min,  0.000 sec (  1.309%)
 Dispersion                     ...        0 min,  0.000 sec (  0.948%)
 classical contributions        ...        0 min,  0.000 sec (  0.116%)
 integral evaluation            ...        0 min,  0.001 sec (  4.168%)
 iterations                     ...        0 min,  0.027 sec ( 77.431%)
 molecular gradient             ...        0 min,  0.005 sec ( 13.155%)
 printout                       ...        0 min,  0.001 sec (  2.780%)

         :::::::::::::::::::::::::::::::::::::::::::::::::::::
         ::                     SUMMARY                     ::
         :::::::::::::::::::::::::::::::::::::::::::::::::::::
         :: total energy             -42.137460306562 Eh    ::
         :: gradient norm              0.033163264680 Eh/a0 ::
         :: HOMO-LUMO gap             12.567558900398 eV    ::
         ::.................................................::
         :: SCC energy               -42.749800833090 Eh    ::
         :: -> isotropic ES            0.006543067132 Eh    ::
         :: -> anisotropic ES          0.014181765217 Eh    ::
         :: -> anisotropic XC          0.025046217511 Eh    ::
         :: -> dispersion             -0.029152950851 Eh    ::
         :: repulsion energy           0.611785669981 Eh    ::
         :: add. restraining           0.000000000000 Eh    ::
         :: total charge              -0.000000000000 e     ::
         :::::::::::::::::::::::::::::::::::::::::::::::::::::

      ----------------------------------------------------------- 
     |                   =====================                   |
     |                        A N C O P T                        |
     |                   =====================                   |
     |               Approximate Normal Coordinate               |
     |                Rational Function Optimizer                |
      ----------------------------------------------------------- 

          ...................................................
          :                      SETUP                      :
          :.................................................:
          :   optimization level            normal          :
          :   max. optcycles                   200          :
          :   ANC micro-cycles                  20          :
          :   degrees of freedom               117          :
          :.................................................:
          :   RF solver                   davidson          :
          :   write xtbopt.log                true          :
          :   linear?                        false          :
          :   energy convergence         0.5000000E-05 Eh   :
          :   grad. convergence          0.1000000E-02 Eh/α :
          :   maxmium RF displ.          2.0000000          :
          :   Hlow (freq-cutoff)         0.2000000E-01      :
          :   Hmax (freq-cutoff)         5.0000000          :
          :   S6 in model hess.         70.0000000          :
          ...................................................

generating ANC from model Hessian ...
Using Lindh-Hessian (1995)
 Shifting diagonal of input Hessian by   1.959962854793975E-002
 Lowest  eigenvalues of input Hessian
    0.000000    0.000000    0.000000    0.000000    0.000000    0.000000
    0.020000    0.020419    0.020851    0.021699    0.022708    0.023772
    0.024067    0.025483    0.025777    0.027826    0.028980    0.029517
 Highest eigenvalues
    1.227675    1.250016    1.277975    1.284234    1.308679    1.320643
 

........................................................................
.............................. CYCLE    1 ..............................
........................................................................

 iter      E             dE          RMSdq      gap      omega  full diag
   1    -42.7498008 -0.427498E+02  0.214E-05   12.57       0.0  T
   2    -42.7498008 -0.319034E-11  0.112E-05   12.57    1391.0  T
   3    -42.7498008 -0.213163E-12  0.530E-06   12.57    2946.5  T
     SCC iter.                  ...        0 min,  0.005 sec
     gradient                   ...        0 min,  0.004 sec
 * total energy  :   -42.1374603 Eh     change       -0.2760459E-10 Eh
   gradient norm :     0.0331628 Eh/α   predicted     0.0000000E+00 (-100.00%)
   displ. norm   :     0.1923090 α      lambda       -0.3712612E-02
   maximum displ.:     0.0850134 α      in ANC's #53, #52, #34, ...

........................................................................
.............................. CYCLE    2 ..............................
........................................................................

 iter      E             dE          RMSdq      gap      omega  full diag
   1    -42.7625445 -0.427625E+02  0.137E-01   12.72       0.0  T
   2    -42.7625502 -0.566747E-05  0.789E-02   12.72       1.0  T
   3    -42.7625510 -0.829571E-06  0.394E-03   12.72       4.0  T
   4    -42.7625511 -0.749055E-07  0.122E-03   12.72      12.8  T
   5    -42.7625511 -0.329873E-08  0.652E-04   12.72      24.0  T
   6    -42.7625511 -0.477606E-09  0.798E-05   12.72     195.8  T
     SCC iter.                  ...        0 min,  0.006 sec
     gradient                   ...        0 min,  0.005 sec
 * total energy  :   -42.1399205 Eh     change       -0.2460227E-02 Eh
   gradient norm :     0.0144664 Eh/α   predicted    -0.1924966E-02 ( -21.76%)
   displ. norm   :     0.1035500 α      lambda       -0.7051118E-03
   maximum displ.:     0.0393802 α      in ANC's #53, #52, #34, ...

........................................................................
.............................. CYCLE    3 ..............................
........................................................................

 iter      E             dE          RMSdq      gap      omega  full diag
   1    -42.7708882 -0.427709E+02  0.658E-02   12.79       0.0  T
   2    -42.7708915 -0.330639E-05  0.373E-02   12.79       1.0  T
   3    -42.7708917 -0.170293E-06  0.370E-03   12.79       4.2  T
   4    -42.7708917 -0.259880E-07  0.651E-04   12.79      24.0  T
   5    -42.7708917 -0.168187E-08  0.370E-04   12.79      42.2  T
     SCC iter.                  ...        0 min,  0.005 sec
     gradient                   ...        0 min,  0.006 sec
 * total energy  :   -42.1403029 Eh     change       -0.3823662E-03 Eh
   gradient norm :     0.0025134 Eh/α   predicted    -0.3563461E-03 (  -6.81%)
   displ. norm   :     0.0335596 α      lambda       -0.3279597E-04
   maximum displ.:     0.0159340 α      in ANC's #12, #7, #10, ...

........................................................................
.............................. CYCLE    4 ..............................
........................................................................

 iter      E             dE          RMSdq      gap      omega  full diag
   1    -42.7719360 -0.427719E+02  0.719E-03   12.79       0.0  T
   2    -42.7719361 -0.103002E-06  0.413E-03   12.79       3.8  T
   3    -42.7719361 -0.309238E-08  0.784E-04   12.79      19.9  T
   4    -42.7719361 -0.969600E-09  0.143E-04   12.79     109.2  T
     SCC iter.                  ...        0 min,  0.004 sec
     gradient                   ...        0 min,  0.004 sec
 * total energy  :   -42.1403311 Eh     change       -0.2815681E-04 Eh
   gradient norm :     0.0009202 Eh/α   predicted    -0.1756112E-04 ( -37.63%)
   displ. norm   :     0.1331995 α      lambda       -0.6068120E-04
   maximum displ.:     0.0660877 α      in ANC's #12, #7, #10, ...

........................................................................
.............................. CYCLE    5 ..............................
........................................................................

 iter      E             dE          RMSdq      gap      omega  full diag
   1    -42.7729720 -0.427730E+02  0.205E-02   12.79       0.0  T
   2    -42.7729723 -0.350908E-06  0.121E-02   12.79       1.3  T
   3    -42.7729723 -0.308585E-07  0.131E-03   12.79      11.9  T
   4    -42.7729724 -0.113873E-07  0.459E-04   12.79      34.0  T
   5    -42.7729724 -0.126072E-08  0.152E-04   12.79     102.7  T
     SCC iter.                  ...        0 min,  0.005 sec
     gradient                   ...        0 min,  0.005 sec
 * total energy  :   -42.1403781 Eh     change       -0.4703543E-04 Eh
   gradient norm :     0.0038988 Eh/α   predicted    -0.3069903E-04 ( -34.73%)
   displ. norm   :     0.0373713 α      lambda       -0.2127785E-04
   maximum displ.:     0.0178643 α      in ANC's #12, #7, #9, ...

........................................................................
.............................. CYCLE    6 ..............................
........................................................................

 iter      E             dE          RMSdq      gap      omega  full diag
   1    -42.7723675 -0.427724E+02  0.579E-03   12.79       0.0  T
   2    -42.7723675 -0.438187E-07  0.338E-03   12.79       4.6  T
   3    -42.7723675 -0.143417E-08  0.462E-04   12.79      33.8  T
   4    -42.7723675 -0.395104E-09  0.935E-05   12.79     167.1  T
     SCC iter.                  ...        0 min,  0.004 sec
     gradient                   ...        0 min,  0.006 sec
 * total energy  :   -42.1403967 Eh     change       -0.1859998E-04 Eh
   gradient norm :     0.0026176 Eh/α   predicted    -0.1065963E-04 ( -42.69%)
   displ. norm   :     0.1288140 α      lambda       -0.5614731E-04
   maximum displ.:     0.0584160 α      in ANC's #12, #7, #9, ...

........................................................................
.............................. CYCLE    7 ..............................
........................................................................

 iter      E             dE          RMSdq      gap      omega  full diag
   1    -42.7707496 -0.427707E+02  0.188E-02   12.79       0.0  T
   2    -42.7707499 -0.333448E-06  0.111E-02   12.79       1.4  T
   3    -42.7707499 -0.124417E-07  0.117E-03   12.79      13.3  T
   4    -42.7707499 -0.432155E-08  0.293E-04   12.79      53.4  T
   5    -42.7707499 -0.470415E-09  0.136E-04   12.79     114.5  T
     SCC iter.                  ...        0 min,  0.005 sec
     gradient                   ...        0 min,  0.004 sec
 * total energy  :   -42.1404284 Eh     change       -0.3166686E-04 Eh
   gradient norm :     0.0012227 Eh/α   predicted    -0.2855187E-04 (  -9.84%)
   displ. norm   :     0.0513022 α      lambda       -0.7540169E-05
   maximum displ.:     0.0216782 α      in ANC's #9, #7, #12, ...

........................................................................
.............................. CYCLE    8 ..............................
........................................................................

 iter      E             dE          RMSdq      gap      omega  full diag
   1    -42.7708634 -0.427709E+02  0.701E-03   12.79       0.0  T
   2    -42.7708635 -0.980657E-08  0.417E-03   12.79       3.7  T
   3    -42.7708635 -0.155329E-08  0.254E-04   12.79      61.4  T
   4    -42.7708635 -0.844885E-09  0.117E-04   12.79     133.7  T
     SCC iter.                  ...        0 min,  0.004 sec
     gradient                   ...        0 min,  0.005 sec
 * total energy  :   -42.1404372 Eh     change       -0.8812471E-05 Eh
   gradient norm :     0.0013739 Eh/α   predicted    -0.3788992E-05 ( -57.00%)
   displ. norm   :     0.0766515 α      lambda       -0.1315838E-04
   maximum displ.:     0.0336812 α      in ANC's #9, #3, #14, ...

........................................................................
.............................. CYCLE    9 ..............................
........................................................................

 iter      E             dE          RMSdq      gap      omega  full diag
   1    -42.7716032 -0.427716E+02  0.102E-02   12.79       0.0  T
   2    -42.7716033 -0.731187E-07  0.603E-03   12.79       2.6  T
   3    -42.7716033 -0.466418E-08  0.575E-04   12.79      27.1  T
   4    -42.7716033 -0.189223E-08  0.184E-04   12.79      85.1  T
     SCC iter.                  ...        0 min,  0.004 sec
     gradient                   ...        0 min,  0.005 sec
 * total energy  :   -42.1404491 Eh     change       -0.1192958E-04 Eh
   gradient norm :     0.0004266 Eh/α   predicted    -0.6599707E-05 ( -44.68%)
   displ. norm   :     0.0367419 α      lambda       -0.3041534E-05
   maximum displ.:     0.0165568 α      in ANC's #9, #3, #2, ...

........................................................................
.............................. CYCLE   10 ..............................
........................................................................

 iter      E             dE          RMSdq      gap      omega  full diag
   1    -42.7715612 -0.427716E+02  0.480E-03   12.79       0.0  T
   2    -42.7715612 -0.393880E-08  0.285E-03   12.79       5.5  T
   3    -42.7715612 -0.580755E-09  0.171E-04   12.79      91.2  T
   4    -42.7715612 -0.440032E-09  0.763E-05   12.79     204.7  T
     SCC iter.                  ...        0 min,  0.004 sec
     gradient                   ...        0 min,  0.004 sec
 * total energy  :   -42.1404526 Eh     change       -0.3474058E-05 Eh
   gradient norm :     0.0003439 Eh/α   predicted    -0.1521907E-05 ( -56.19%)
   displ. norm   :     0.0512448 α      lambda       -0.4092481E-05
   maximum displ.:     0.0226279 α      in ANC's #3, #2, #9, ...

   *** GEOMETRY OPTIMIZATION CONVERGED AFTER 10 ITERATIONS ***

------------------------------------------------------------------------
 total energy gain   :        -0.0029923 Eh       -1.8777 kcal/mol
 total RMSD          :         0.0922801 a0        0.0488 Å
 total power (kW/mol):        -0.7856199 (step)  -57.6230 (real)
------------------------------------------------------------------------

 ANCopt (total)                0 d,  0 h,  0 min,  0.136 sec
 optimizer setup                ...        0 min,  0.001 sec (  1.002%)
 model hessian                  ...        0 min,  0.021 sec ( 15.134%)
 ANC generation                 ...        0 min,  0.001 sec (  1.044%)
 coordinate transformation      ...        0 min,  0.000 sec (  0.140%)
 single point calculation       ...        0 min,  0.108 sec ( 78.982%)
 optimization log               ...        0 min,  0.001 sec (  0.955%)
 hessian update                 ...        0 min,  0.000 sec (  0.126%)
 rational function              ...        0 min,  0.001 sec (  0.904%)

================
 final structure:
================
41
 xtb: 6.6.1 (8d0f1dd)
C            3.52305383518445       -2.68214465950124       -1.09491605613649
C            3.73798927818879       -1.17952442205062       -0.95859208820154
C            2.48182431128272       -0.46933689634474       -0.45968389958725
C            2.69752288627350        1.03506149896832       -0.30249487145601
C            1.42215387413946        1.78537516780664        0.08498572256505
C            0.97629732854118        1.50350464275625        1.51823308491980
C           -0.27767078497333        2.27854168647986        1.92949780143201
C           -1.50783782559259        2.02009171519001        1.05608991074885
C           -1.89636289514182        0.54611017317206        0.96785494849029
C           -3.12454334198875        0.34294415238832        0.08424149889608
C           -3.56495479132066       -1.11840471461253       -0.02244763185549
C           -2.51138497755818       -2.07064239090807       -0.59302176046374
C           -2.04245177291142       -1.68702992081975       -1.99161221822848
H            4.42771261469010       -3.16847562289417       -1.45269202426055
H            2.72008335689294       -2.89051096916953       -1.79896503915623
H            3.25628935529415       -3.11834416401378       -0.13450136593631
H            4.55842103856157       -0.99221056816975       -0.26190774772594
H            4.02679035838608       -0.76542148192759       -1.92752003110976
H            2.18964775361025       -0.90358527247861        0.49811648786463
H            1.66726988513537       -0.64442228266665       -1.16720147273084
H            3.06463479991350        1.43463023305366       -1.25145700114577
H            3.46897759572135        1.21469009295520        0.45005330184270
H            0.63086705761575        1.50435713304174       -0.61144920059016
H            1.59340116316836        2.85935274582300       -0.02333287752893
H            1.78698126492990        1.77853395753060        2.19815039975518
H            0.79535251850463        0.43635366889315        1.64629945280559
H           -0.05763895979446        3.34895773922109        1.90421926185750
H           -0.51769745979391        2.01696580999665        2.96333582428675
H           -2.34682737421715        2.58593410216344        1.46972673404817
H           -1.32770015475233        2.40371617342836        0.04986870100705
H           -2.09828339432082        0.16034768674380        1.97002209851505
H           -1.06302098343261       -0.01783638393548        0.55131366876644
H           -3.95690780296495        0.92273278844615        0.49199975648845
H           -2.91746356574594        0.73523256735114       -0.91327230512444
H           -4.45495905636168       -1.16289738924435       -0.65557695438315
H           -3.85006337696302       -1.47508646146155        0.97064473606251
H           -2.94604153947199       -3.07286904740402       -0.62856790432310
H           -1.65203158763055       -2.11596361351429        0.07814803528733
H           -2.89145937221580       -1.58730433120857       -2.66477035792979
H           -1.50165931715027       -0.74429341702358       -1.97782759975748
H           -1.37794994173177       -2.45153272606054       -2.38899701800797
           -------------------------------------------------
          |                Final Singlepoint                |
           -------------------------------------------------

          ...................................................
          :                      SETUP                      :
          :.................................................:
          :  # basis functions                  80          :
          :  # atomic orbitals                  80          :
          :  # shells                           54          :
          :  # electrons                        80          :
          :  max. iterations                   250          :
          :  Hamiltonian                  GFN2-xTB          :
          :  restarted?                      false          :
          :  GBSA solvation                  false          :
          :  PC potential                    false          :
          :  electronic temp.          300.0000000     K    :
          :  accuracy                    1.0000000          :
          :  -> integral cutoff          0.2500000E+02      :
          :  -> integral neglect         0.1000000E-07      :
          :  -> SCF convergence          0.1000000E-05 Eh   :
          :  -> wf. convergence          0.1000000E-03 e    :
          :  Broyden damping             0.4000000          :
          ...................................................

 iter      E             dE          RMSdq      gap      omega  full diag
   1    -42.7715612 -0.427716E+02  0.167E-05   12.79       0.0  T
   2    -42.7715612 -0.547118E-12  0.969E-06   12.79    1611.9  T
   3    -42.7715612  0.106581E-12  0.242E-06   12.79    6459.9  T

   *** convergence criteria satisfied after 3 iterations ***

         #    Occupation            Energy/Eh            Energy/eV
      -------------------------------------------------------------
         1        2.0000           -0.6232802             -16.9603
       ...           ...                  ...                  ...
        34        2.0000           -0.4229405             -11.5088
        35        2.0000           -0.4213131             -11.4645
        36        2.0000           -0.4182416             -11.3809
        37        2.0000           -0.4171802             -11.3520
        38        2.0000           -0.4112834             -11.1916
        39        2.0000           -0.4101220             -11.1600
        40        2.0000           -0.4080677             -11.1041 (HOMO)
        41                          0.0618733               1.6837 (LUMO)
        42                          0.0665963               1.8122
        43                          0.0853680               2.3230
        44                          0.0952488               2.5919
        45                          0.1029575               2.8016
       ...                                ...                  ...
        80                          0.3302386               8.9862
      -------------------------------------------------------------
                  HL-Gap            0.4699410 Eh           12.7877 eV
             Fermi-level           -0.1730972 Eh           -4.7102 eV

 SCC (total)                   0 d,  0 h,  0 min,  0.009 sec
 SCC setup                      ...        0 min,  0.000 sec (  2.898%)
 Dispersion                     ...        0 min,  0.000 sec (  1.389%)
 classical contributions        ...        0 min,  0.000 sec (  0.391%)
 integral evaluation            ...        0 min,  0.001 sec ( 12.763%)
 iterations                     ...        0 min,  0.003 sec ( 30.199%)
 molecular gradient             ...        0 min,  0.005 sec ( 48.944%)
 printout                       ...        0 min,  0.000 sec (  3.071%)

         :::::::::::::::::::::::::::::::::::::::::::::::::::::
         ::                     SUMMARY                     ::
         :::::::::::::::::::::::::::::::::::::::::::::::::::::
         :: total energy             -42.140452574803 Eh    ::
         :: gradient norm              0.000343918106 Eh/a0 ::
         :: HOMO-LUMO gap             12.787746401870 eV    ::
         ::.................................................::
         :: SCC energy               -42.771561158089 Eh    ::
         :: -> isotropic ES            0.007007095295 Eh    ::
         :: -> anisotropic ES          0.013498118978 Eh    ::
         :: -> anisotropic XC          0.025304939756 Eh    ::
         :: -> dispersion             -0.029156115084 Eh    ::
         :: repulsion energy           0.630562103096 Eh    ::
         :: add. restraining           0.000000000000 Eh    ::
         :: total charge               0.000000000000 e     ::
         :::::::::::::::::::::::::::::::::::::::::::::::::::::

           ------------------------------------------------- 
          |                Numerical Hessian                |
           ------------------------------------------------- 
step length          :   0.00500
SCC accuracy         :   0.30000
Hessian scale factor :   1.00000
frozen atoms in %    :   0.00000    0
RMS gradient         :   0.00034
estimated CPU  time      0.35 min
estimated wall time      0.09 min

writing file <hessian>.

 projected vibrational frequencies (cm⁻¹)
eigval :       -0.00    -0.00    -0.00    -0.00    -0.00     0.00
eigval :        5.19    20.86    28.56    50.73    66.78    78.86
eigval :      112.20   113.95   134.55   174.75   202.14   206.67
eigval :      232.04   245.46   268.81   274.44   284.10   344.04
eigval :      380.41   404.16   459.59   491.00   537.33   753.03
eigval :      761.07   772.81   800.18   821.26   832.23   863.81
eigval :      892.00   906.17   923.09   937.52   954.39   982.73
eigval :     1006.31  1009.52  1038.61  1048.02  1065.35  1080.03
eigval :     1093.76  1106.28  1118.36  1120.52  1148.07  1149.96
eigval :     1152.13  1158.27  1169.99  1190.40  1222.56  1236.51
eigval :     1250.05  1262.87  1270.56  1277.76  1284.18  1287.25
eigval :     1288.94  1295.08  1297.15  1318.54  1347.80  1348.58
eigval :     1359.55  1359.94  1362.79  1375.76  1378.00  1379.88
eigval :     1414.80  1416.57  1487.14  1489.31  1489.86  1494.19
eigval :     1494.64  1496.35  1500.01  1500.78  1502.88  1505.45
eigval :     1505.91  1507.92  1508.04  1510.12  1518.92  2954.24
eigval :     2954.53  2956.18  2957.53  2957.73  2958.82  2960.69
eigval :     2963.44  2965.17  2970.51  2970.99  2975.25  2976.19
eigval :     2977.93  2980.65  2982.23  2987.53  2989.02  2991.04
eigval :     2995.52  3004.54  3015.13  3028.46  3028.77  3031.21
eigval :     3031.69  3037.16  3043.89
           -------------------------------------------------
          |                Property Printout                |
           -------------------------------------------------

    * Orbital Energies and Occupations

         #    Occupation            Energy/Eh            Energy/eV
      -------------------------------------------------------------
         1        2.0000           -0.6232802             -16.9603
       ...           ...                  ...                  ...
        28        2.0000           -0.4511672             -12.2769
        29        2.0000           -0.4433872             -12.0652
        30        2.0000           -0.4395936             -11.9620
        31        2.0000           -0.4337142             -11.8020
        32        2.0000           -0.4306371             -11.7182
        33        2.0000           -0.4282364             -11.6529
        34        2.0000           -0.4229405             -11.5088
        35        2.0000           -0.4213131             -11.4645
        36        2.0000           -0.4182416             -11.3809
        37        2.0000           -0.4171802             -11.3520
        38        2.0000           -0.4112834             -11.1916
        39        2.0000           -0.4101220             -11.1600
        40        2.0000           -0.4080677             -11.1041 (HOMO)
        41                          0.0618733               1.6837 (LUMO)
        42                          0.0665963               1.8122
        43                          0.0853680               2.3230
        44                          0.0952488               2.5919
        45                          0.1029575               2.8016
        46                          0.1095348               2.9806
        47                          0.1147580               3.1227
        48                          0.1203713               3.2755
        49                          0.1260716               3.4306
        50                          0.1313282               3.5736
        51                          0.1338522               3.6423
       ...                                ...                  ...
        80                          0.3302386               8.9862
      -------------------------------------------------------------
                  HL-Gap            0.4699410 Eh           12.7877 eV
             Fermi-level           -0.1730972 Eh           -4.7102 eV

     #   Z          covCN         q      C6AA      α(0)
     1   6 C        3.752    -0.101    22.499     6.764
     2   6 C        3.801    -0.053    21.525     6.606
     3   6 C        3.803    -0.058    21.613     6.619
     4   6 C        3.802    -0.058    21.623     6.620
     5   6 C        3.801    -0.058    21.610     6.619
     6   6 C        3.801    -0.058    21.613     6.619
     7   6 C        3.801    -0.057    21.607     6.618
     8   6 C        3.802    -0.057    21.603     6.617
     9   6 C        3.802    -0.059    21.637     6.623
    10   6 C        3.802    -0.057    21.601     6.617
    11   6 C        3.801    -0.057    21.603     6.617
    12   6 C        3.799    -0.052    21.505     6.603
    13   6 C        3.751    -0.099    22.458     6.758
    14   1 H        0.925     0.032     2.561     2.503
    15   1 H        0.925     0.033     2.543     2.494
    16   1 H        0.925     0.033     2.548     2.496
    17   1 H        0.924     0.028     2.622     2.532
    18   1 H        0.924     0.027     2.625     2.534
    19   1 H        0.924     0.030     2.581     2.512
    20   1 H        0.924     0.030     2.588     2.516
    21   1 H        0.924     0.027     2.631     2.537
    22   1 H        0.924     0.028     2.621     2.532
    23   1 H        0.924     0.034     2.526     2.486
    24   1 H        0.924     0.027     2.632     2.537
    25   1 H        0.924     0.026     2.637     2.540
    26   1 H        0.925     0.033     2.539     2.492
    27   1 H        0.924     0.027     2.633     2.538
    28   1 H        0.924     0.027     2.624     2.533
    29   1 H        0.924     0.025     2.656     2.549
    30   1 H        0.924     0.029     2.603     2.523
    31   1 H        0.924     0.027     2.634     2.538
    32   1 H        0.925     0.040     2.449     2.447
    33   1 H        0.924     0.025     2.665     2.553
    34   1 H        0.924     0.031     2.573     2.508
    35   1 H        0.924     0.028     2.617     2.530
    36   1 H        0.924     0.026     2.637     2.540
    37   1 H        0.924     0.026     2.649     2.545
    38   1 H        0.924     0.031     2.576     2.510
    39   1 H        0.925     0.032     2.561     2.503
    40   1 H        0.925     0.035     2.513     2.479
    41   1 H        0.925     0.029     2.601     2.522

 Mol. C6AA /au·bohr⁶  :      11137.442567
 Mol. C8AA /au·bohr⁸  :     232348.781014
 Mol. α(0) /au        :        156.827067


Wiberg/Mayer (AO) data.
largest (>0.10) Wiberg bond orders for each atom

 ---------------------------------------------------------------------------
     #   Z sym  total        # sym  WBO       # sym  WBO       # sym  WBO
 ---------------------------------------------------------------------------
     1   6 C    3.997 --     2 C    1.019    15 H    0.988    16 H    0.988
                            14 H    0.988
     2   6 C    3.998 --     1 C    1.019     3 C    1.008    17 H    0.979
                            18 H    0.979
     3   6 C    3.998 --     4 C    1.008     2 C    1.008    20 H    0.977
                            19 H    0.975
     4   6 C    3.997 --     3 C    1.008     5 C    1.006    21 H    0.977
                            22 H    0.977
     5   6 C    3.997 --     6 C    1.009     4 C    1.006    24 H    0.978
                            23 H    0.974
     6   6 C    3.998 --     5 C    1.009     7 C    1.006    25 H    0.977
                            26 H    0.973
     7   6 C    3.997 --     6 C    1.006     8 C    1.006    28 H    0.978
                            27 H    0.978
     8   6 C    3.997 --     9 C    1.008     7 C    1.006    29 H    0.977
                            30 H    0.976
     9   6 C    3.997 --    10 C    1.008     8 C    1.008    31 H    0.978
                            32 H    0.971
    10   6 C    3.997 --     9 C    1.008    11 C    1.007    33 H    0.977
                            34 H    0.976
    11   6 C    3.997 --    12 C    1.007    10 C    1.007    36 H    0.978
                            35 H    0.978
    12   6 C    3.998 --    13 C    1.020    11 C    1.007    37 H    0.979
                            38 H    0.976
    13   6 C    3.997 --    12 C    1.020    39 H    0.988    41 H    0.988
                            40 H    0.986
    14   1 H    0.999 --     1 C    0.988
    15   1 H    0.999 --     1 C    0.988
    16   1 H    0.999 --     1 C    0.988
    17   1 H    0.999 --     2 C    0.979
    18   1 H    0.999 --     2 C    0.979
    19   1 H    0.999 --     3 C    0.975
    20   1 H    0.999 --     3 C    0.977
    21   1 H    0.999 --     4 C    0.977
    22   1 H    0.999 --     4 C    0.977
    23   1 H    0.999 --     5 C    0.974
    24   1 H    0.999 --     5 C    0.978
    25   1 H    0.999 --     6 C    0.977
    26   1 H    0.999 --     6 C    0.973
    27   1 H    0.999 --     7 C    0.978
    28   1 H    0.999 --     7 C    0.978
    29   1 H    0.999 --     8 C    0.977
    30   1 H    0.999 --     8 C    0.976
    31   1 H    0.999 --     9 C    0.978
    32   1 H    0.998 --     9 C    0.971
    33   1 H    0.999 --    10 C    0.977
    34   1 H    0.999 --    10 C    0.976
    35   1 H    0.999 --    11 C    0.978
    36   1 H    0.999 --    11 C    0.978
    37   1 H    0.999 --    12 C    0.979
    38   1 H    0.999 --    12 C    0.976
    39   1 H    0.999 --    13 C    0.988
    40   1 H    0.999 --    13 C    0.986
    41   1 H    0.999 --    13 C    0.988
 ---------------------------------------------------------------------------

Topologies differ in total number of bonds
Writing topology from bond orders to xtbtopo.mol

molecular dipole:
                 x           y           z       tot (Debye)
 q only:        0.007      -0.026      -0.019
   full:        0.004      -0.019      -0.013       0.059
molecular quadrupole (traceless):
                xx          xy          yy          xz          yz          zz
 q only:       -0.372      -0.104       0.269       0.124      -0.181       0.104
  q+dip:       -0.400       0.386      -0.901       0.644      -0.782       1.301
   full:       -0.279       0.144      -0.361       0.359      -0.397       0.640

           -------------------------------------------------
          |                Geometry Summary                 |
           -------------------------------------------------

      molecular mass/u    :      184.3619077
   center of mass at/Å    :        0.0010803      -0.0004371      -0.0000920
  moments of inertia/u·Å² :        0.7308396E+03   0.1275587E+04   0.1858243E+04
rotational constants/cm⁻¹ :        0.2306612E-01   0.1321559E-01   0.9071811E-02

 * 40 selected distances

     #   Z          #   Z                                           value/Å
     1   6 C        2   6 C                                       1.5240241
     2   6 C        3   6 C                                       1.5268355
     3   6 C        4   6 C                                       1.5278905
     4   6 C        5   6 C                                       1.5296007
     5   6 C        6   6 C                                       1.5272320
     6   6 C        7   6 C                                       1.5304436
     7   6 C        8   6 C                                       1.5306695 (max)
     8   6 C        9   6 C                                       1.5268789
     9   6 C       10   6 C                                       1.5265899
    10   6 C       11   6 C                                       1.5299953
    11   6 C       12   6 C                                       1.5304644
    12   6 C       13   6 C                                       1.5241760
     1   6 C       14   1 H                                       1.0876255
     1   6 C       15   1 H                                       1.0880548
     1   6 C       16   1 H                                       1.0880395
     2   6 C       17   1 H                                       1.0925036
     2   6 C       18   1 H                                       1.0925699
     3   6 C       19   1 H                                       1.0914763
     3   6 C       20   1 H                                       1.0930394
     4   6 C       21   1 H                                       1.0931403
     4   6 C       22   1 H                                       1.0925831
     5   6 C       23   1 H                                       1.0909298
     5   6 C       24   1 H                                       1.0929257
     6   6 C       25   1 H                                       1.0932234
     6   6 C       26   1 H                                       1.0899328
     7   6 C       27   1 H                                       1.0930891
     7   6 C       28   1 H                                       1.0930947
     8   6 C       29   1 H                                       1.0932414
     8   6 C       30   1 H                                       1.0918327
     9   6 C       31   1 H                                       1.0926682
     9   6 C       32   1 H                                       1.0890369
    10   6 C       33   1 H                                       1.0932760
    10   6 C       34   1 H                                       1.0916988
    11   6 C       35   1 H                                       1.0931332
    11   6 C       36   1 H                                       1.0930423
    12   6 C       37   1 H                                       1.0929997
    12   6 C       38   1 H                                       1.0913347
    13   6 C       39   1 H                                       1.0880722
    13   6 C       40   1 H                                       1.0869217 (min)
    13   6 C       41   1 H                                       1.0880910

 * 2 distinct bonds (by element types)

   Z      Z             #   av. dist./Å        max./Å        min./Å
   1 H    6 C          28     1.0913420     1.0932760     1.0869217
   6 C    6 C          12     1.5279000     1.5306695     1.5240241

           -------------------------------------------------
          |               Frequency Printout                |
           -------------------------------------------------
 projected vibrational frequencies (cm⁻¹)
eigval :       -0.00    -0.00    -0.00    -0.00    -0.00     0.00
eigval :        5.19    20.86    28.56    50.73    66.78    78.86
eigval :      112.20   113.95   134.55   174.75   202.14   206.67
eigval :      232.04   245.46   268.81   274.44   284.10   344.04
eigval :      380.41   404.16   459.59   491.00   537.33   753.03
eigval :      761.07   772.81   800.18   821.26   832.23   863.81
eigval :      892.00   906.17   923.09   937.52   954.39   982.73
eigval :     1006.31  1009.52  1038.61  1048.02  1065.35  1080.03
eigval :     1093.76  1106.28  1118.36  1120.52  1148.07  1149.96
eigval :     1152.13  1158.27  1169.99  1190.40  1222.56  1236.51
eigval :     1250.05  1262.87  1270.56  1277.76  1284.18  1287.25
eigval :     1288.94  1295.08  1297.15  1318.54  1347.80  1348.58
eigval :     1359.55  1359.94  1362.79  1375.76  1378.00  1379.88
eigval :     1414.80  1416.57  1487.14  1489.31  1489.86  1494.19
eigval :     1494.64  1496.35  1500.01  1500.78  1502.88  1505.45
eigval :     1505.91  1507.92  1508.04  1510.12  1518.92  2954.24
eigval :     2954.53  2956.18  2957.53  2957.73  2958.82  2960.69
eigval :     2963.44  2965.17  2970.51  2970.99  2975.25  2976.19
eigval :     2977.93  2980.65  2982.23  2987.53  2989.02  2991.04
eigval :     2995.52  3004.54  3015.13  3028.46  3028.77  3031.21
eigval :     3031.69  3037.16  3043.89
 reduced masses (amu)
   1:  9.81   2:  9.95   3: 10.31   4: 10.25   5: 10.14   6: 10.02   7:  9.74   8:  8.56
   9:  8.30  10:  6.66  11:  8.24  12:  8.53  13:  7.58  14:  7.55  15:  7.26  16:  5.48
  17:  7.32  18:  6.83  19:  2.51  20:  7.73  21:  5.97  22:  6.98  23:  7.42  24:  8.61
  25:  7.46  26:  8.46  27:  8.71  28:  8.04  29:  8.42  30:  2.43  31:  2.60  32:  1.98
  33:  2.89  34:  2.98  35:  4.69  36:  5.15  37:  5.47  38:  6.24  39:  5.90  40:  5.82
  41:  5.03  42:  6.35  43:  6.11  44:  5.28  45:  6.82  46:  4.69  47:  6.30  48:  6.74
  49:  4.67  50:  8.26  51:  6.29  52:  7.63  53:  7.71  54:  7.74  55:  7.84  56:  7.54
  57:  5.90  58:  5.71  59:  4.70  60:  4.06  61:  3.96  62:  3.10  63:  3.24  64:  3.20
  65:  2.51  66:  2.09  67:  2.48  68:  2.46  69:  2.25  70:  3.24  71:  4.36  72:  4.33
  73:  4.32  74:  4.69  75:  4.64  76:  5.03  77:  5.41  78:  5.36  79:  3.23  80:  3.18
  81:  1.91  82:  1.90  83:  1.86  84:  1.97  85:  1.91  86:  1.93  87:  1.87  88:  1.80
  89:  1.79  90:  1.54  91:  1.73  92:  1.79  93:  1.80  94:  1.82  95:  1.69  96:  1.89
  97:  1.93  98:  1.93  99:  1.85 100:  1.84 101:  1.86 102:  1.94 103:  1.83 104:  1.76
 105:  1.75 106:  1.75 107:  1.55 108:  1.54 109:  1.57 110:  1.60 111:  1.61 112:  1.60
 113:  1.58 114:  1.65 115:  1.68 116:  1.66 117:  1.68 118:  1.94 119:  1.95 120:  1.83
 121:  1.80 122:  1.29 123:  1.49
 IR intensities (km·mol⁻¹)
   1:  0.00   2:  0.00   3:  0.00   4:  0.00   5:  0.00   6:  0.00   7:  0.00   8:  0.00
   9:  0.00  10:  0.00  11:  0.00  12:  0.01  13:  0.01  14:  0.03  15:  0.06  16:  0.05
  17:  0.16  18:  0.06  19:  0.01  20:  0.13  21:  0.11  22:  0.08  23:  0.44  24:  0.11
  25:  0.37  26:  0.08  27:  0.57  28:  1.18  29:  0.60  30:  9.47  31: 20.57  32:  8.47
  33:  2.26  34:  0.62  35:  2.41  36:  1.28  37:  0.80  38:  0.44  39:  0.27  40:  2.95
  41:  2.17  42:  3.36  43:  1.43  44:  1.24  45:  1.14  46:  0.35  47:  0.69  48:  0.31
  49:  0.52  50:  0.33  51:  2.01  52:  0.66  53:  0.53  54:  0.55  55:  0.43  56:  0.60
  57:  1.48  58:  0.25  59:  0.58  60:  0.08  61:  0.20  62:  1.01  63:  0.32  64:  0.40
  65:  0.57  66:  0.22  67:  0.62  68:  0.28  69:  0.19  70:  0.53  71:  0.70  72:  0.30
  73:  1.31  74:  3.29  75:  3.07  76:  0.86  77:  1.98  78:  1.75  79:  2.07  80:  0.75
  81:  0.40  82:  0.23  83:  0.15  84:  0.07  85:  0.15  86:  0.87  87:  0.28  88:  0.09
  89:  0.21  90:  2.08  91:  1.36  92:  1.37  93:  0.24  94:  1.80  95:  1.30  96:  7.77
  97:  8.10  98: 25.12  99: 19.89 100:  4.00 101: 18.36 102:  6.98 103: 29.71 104: 34.63
 105: 28.81 106: 46.10 107: 33.46 108: 76.45 109:129.19 110: 43.05 111: 21.15 112: 46.87
 113: 24.64 114: 89.91 115:150.30 116: 75.00 117: 78.42 118: 93.25 119: 39.29 120: 68.83
 121: 37.41 122: 31.05 123: 34.46
 Raman intensities (amu)
   1:  0.00   2:  0.00   3:  0.00   4:  0.00   5:  0.00   6:  0.00   7:  0.00   8:  0.00
   9:  0.00  10:  0.00  11:  0.00  12:  0.00  13:  0.00  14:  0.00  15:  0.00  16:  0.00
  17:  0.00  18:  0.00  19:  0.00  20:  0.00  21:  0.00  22:  0.00  23:  0.00  24:  0.00
  25:  0.00  26:  0.00  27:  0.00  28:  0.00  29:  0.00  30:  0.00  31:  0.00  32:  0.00
  33:  0.00  34:  0.00  35:  0.00  36:  0.00  37:  0.00  38:  0.00  39:  0.00  40:  0.00
  41:  0.00  42:  0.00  43:  0.00  44:  0.00  45:  0.00  46:  0.00  47:  0.00  48:  0.00
  49:  0.00  50:  0.00  51:  0.00  52:  0.00  53:  0.00  54:  0.00  55:  0.00  56:  0.00
  57:  0.00  58:  0.00  59:  0.00  60:  0.00  61:  0.00  62:  0.00  63:  0.00  64:  0.00
  65:  0.00  66:  0.00  67:  0.00  68:  0.00  69:  0.00  70:  0.00  71:  0.00  72:  0.00
  73:  0.00  74:  0.00  75:  0.00  76:  0.00  77:  0.00  78:  0.00  79:  0.00  80:  0.00
  81:  0.00  82:  0.00  83:  0.00  84:  0.00  85:  0.00  86:  0.00  87:  0.00  88:  0.00
  89:  0.00  90:  0.00  91:  0.00  92:  0.00  93:  0.00  94:  0.00  95:  0.00  96:  0.00
  97:  0.00  98:  0.00  99:  0.00 100:  0.00 101:  0.00 102:  0.00 103:  0.00 104:  0.00
 105:  0.00 106:  0.00 107:  0.00 108:  0.00 109:  0.00 110:  0.00 111:  0.00 112:  0.00
 113:  0.00 114:  0.00 115:  0.00 116:  0.00 117:  0.00 118:  0.00 119:  0.00 120:  0.00
 121:  0.00 122:  0.00 123:  0.00
 output can be read by thermo (or use thermo option).
 writing <g98.out> molden fake output.
 recommended (thermochemical) frequency scaling factor: 1.0
           -------------------------------------------------
          |             Thermodynamic Functions             |
           -------------------------------------------------

Molecule has no symmetry elements
It seems to be the C1 point group
c1  symmetry found (for desy threshold:  0.10E+00) used in thermo

          ...................................................
          :                      SETUP                      :
          :.................................................:
          :  # frequencies                         117      :
          :  # imaginary freq.                       0      :
          :  linear?                             false      :
          :  only rotor calc.                    false      :
          :  symmetry                               c1      :
          :  rotational number                       1      :
          :  scaling factor                  1.0000000      :
          :  rotor cutoff                   50.0000000 cm⁻¹ :
          :  imag. cutoff                  -20.0000000 cm⁻¹ :
          :.................................................:

    mode    ω/cm⁻¹     T·S(HO)/kcal·mol⁻¹    T·S(FR)/kcal·mol⁻¹   T·S(vib)
   ------------------------------------------------------------------------
       1      5.19    -2.77745 (  0.01%)    -1.72709 ( 99.99%)    -1.72721
       2     20.86    -1.95299 (  2.94%)    -1.31530 ( 97.06%)    -1.33406
       3     28.56    -1.76711 (  9.62%)    -1.22230 ( 90.38%)    -1.27473
       4     50.73    -1.42781 ( 51.44%)    -1.05221 ( 48.56%)    -1.24542
       5     66.78    -1.26598 ( 76.09%)    -0.97077 ( 23.91%)    -1.19539
       6     78.86    -1.16844 ( 86.09%)    -0.92151 ( 13.91%)    -1.13409
       7    112.20    -0.96315 ( 96.21%)    -0.81707 (  3.79%)    -0.95761
       8    113.95    -0.95420 ( 96.43%)    -0.81248 (  3.57%)    -0.94914
       9    134.55    -0.85867 ( 98.13%)    -0.76327 (  1.87%)    -0.85688
      10    174.75    -0.71072 ( 99.33%)    -0.68583 (  0.67%)    -0.71055
      11    202.14    -0.63014 ( 99.63%)    -0.64269 (  0.37%)    -0.63018
      12    206.67    -0.61803 ( 99.66%)    -0.63613 (  0.34%)    -0.61809
      13    232.04    -0.55548 ( 99.78%)    -0.60183 (  0.22%)    -0.55558
      14    245.46    -0.52562 ( 99.83%)    -0.58518 (  0.17%)    -0.52572
      15    268.81    -0.47819 ( 99.88%)    -0.55826 (  0.12%)    -0.47828
      16    274.44    -0.46752 ( 99.89%)    -0.55212 (  0.11%)    -0.46761
      17    284.10    -0.44987 ( 99.90%)    -0.54188 (  0.10%)    -0.44996
   ------------------------------------------------------------------------

   temp. (K)  partition function   enthalpy   heat capacity  entropy
                                   cal/mol     cal/K/mol   cal/K/mol   J/K/mol
 298.15  VIB  0.160E+09             9108.622     52.481     59.838
         ROT  0.318E+07              888.752      2.981     32.735
         INT  0.509E+15             9997.374     55.462     92.572
         TR   0.242E+28             1481.254      4.968     41.523
         TOT                       11478.6281    60.4304   134.0950   561.0534

       T/K    H(0)-H(T)+PV         H(T)/Eh          T*S/Eh         G(T)/Eh
   ------------------------------------------------------------------------
    298.15    0.182924E-01    0.403679E+00    0.637129E-01    0.339966E+00
   ------------------------------------------------------------------------

         :::::::::::::::::::::::::::::::::::::::::::::::::::::
         ::                  THERMODYNAMIC                  ::
         :::::::::::::::::::::::::::::::::::::::::::::::::::::
         :: total free energy         -41.800486516434 Eh   ::
         ::.................................................::
         :: total energy              -42.140452574803 Eh   ::
         :: zero point energy           0.385386552300 Eh   ::
         :: G(RRHO) w/o ZPVE           -0.045420493932 Eh   ::
         :: G(RRHO) contrib.            0.339966058368 Eh   ::
         :::::::::::::::::::::::::::::::::::::::::::::::::::::
 
 normal mode %tage of torsion character
   1:  0.00   2:  0.00   3:  0.00   4:  0.00   5:  0.00   6:  0.00   7:  0.33   8:  0.32
   9:  0.46  10:  0.65  11:  0.56  12:  0.44  13:  0.63  14:  0.52  15:  0.50  16:  0.60
  17:  0.52  18:  0.65  19:  0.86  20:  0.55  21:  0.64  22:  0.60  23:  0.51  24:  0.32
  25:  0.30  26:  0.13  27:  0.16  28:  0.23  29:  0.16  30:  0.57  31:  0.55  32:  0.51
  33:  0.47  34:  0.53  35:  0.39  36:  0.45  37:  0.28  38:  0.37  39:  0.38  40:  0.16
  41:  0.28  42:  0.25  43:  0.13  44:  0.36  45:  0.22  46:  0.38  47:  0.21  48:  0.13
  49:  0.37  50:  0.22  51:  0.12  52:  0.16  53:  0.28  54:  0.25  55:  0.22  56:  0.32
  57:  0.24  58:  0.37  59:  0.42  60:  0.35  61:  0.30  62:  0.33  63:  0.19  64:  0.21
  65:  0.17  66:  0.13  67:  0.18  68:  0.07  69:  0.09  70:  0.10  71:  0.10  72:  0.09
  73:  0.07  74:  0.09  75:  0.09  76:  0.07  77:  0.06  78:  0.06  79:  0.00  80:  0.00
  81:  0.64  82:  0.64  83:  0.66  84:  0.61  85:  0.64  86:  0.65  87:  0.63  88:  0.64
  89:  0.70  90:  0.91  91:  0.71  92:  0.79  93:  0.73  94:  0.70  95:  0.78  96:  0.33
  97:  0.26  98:  0.26  99:  0.23 100:  0.19 101:  0.30 102:  0.32 103:  0.12 104:  0.06
 105:  0.06 106:  0.05 107:  0.01 108:  0.01 109:  0.01 110:  0.02 111:  0.03 112:  0.02
 113:  0.02 114:  0.02 115:  0.03 116:  0.06 117:  0.08 118:  0.05 119:  0.07 120:  0.03
 121:  0.03 122:  0.00 123:  0.01
 recommended # of modes for mode following           4

optimized geometry written to: xtbopt.xyz


           -------------------------------------------------
          | TOTAL ENERGY              -42.140452574803 Eh   |
          | TOTAL ENTHALPY            -41.736773664268 Eh   |
          | TOTAL FREE ENERGY         -41.800486516434 Eh   |
          | GRADIENT NORM               0.000343923285 Eh/α |
          | HOMO-LUMO GAP              12.787746530105 eV   |
           -------------------------------------------------

------------------------------------------------------------------------
 * finished run on 2024/04/23 at 12:10:34.739     
------------------------------------------------------------------------
 total:
 * wall-time:     0 d,  0 h,  0 min,  1.796 sec
 *  cpu-time:     0 d,  0 h,  0 min,  6.684 sec
 * ratio c/w:     3.722 speedup
 SCF:
 * wall-time:     0 d,  0 h,  0 min,  0.038 sec
 *  cpu-time:     0 d,  0 h,  0 min,  0.129 sec
 * ratio c/w:     3.405 speedup
 ANC optimizer:
 * wall-time:     0 d,  0 h,  0 min,  0.152 sec
 *  cpu-time:     0 d,  0 h,  0 min,  0.584 sec
 * ratio c/w:     3.839 speedup
 analytical hessian:
 * wall-time:     0 d,  0 h,  0 min,  1.525 sec
 *  cpu-time:     0 d,  0 h,  0 min,  5.770 sec
 * ratio c/w:     3.784 speedup

