41
 energy: -42.137460306590 gnorm: 0.033162798552 xtb: 6.6.1 (8d0f1dd)
C            3.52038900000000       -2.69460000000000       -1.07835400000000
C            3.73196200000000       -1.19399600000000       -0.95381900000000
C            2.48046200000000       -0.45904100000000       -0.47169100000000
C            2.68698200000000        1.05133600000000       -0.34511600000000
C            1.42349500000000        1.80474700000000        0.08010800000000
C            0.97177400000000        1.48072400000000        1.50471500000000
C           -0.27159000000000        2.25945900000000        1.94660800000000
C           -1.50219100000000        2.02432700000000        1.06519600000000
C           -1.92494800000000        0.55756800000000        0.98361100000000
C           -3.14004100000000        0.33828400000000        0.08338700000000
C           -3.56756800000000       -1.12861700000000       -0.02230900000000
C           -2.48903200000000       -2.05961100000000       -0.58914400000000
C           -2.02415300000000       -1.66873400000000       -1.98353000000000
H            4.42247600000000       -3.21020600000000       -1.41696200000000
H            2.72356200000000       -2.92343900000000       -1.78923900000000
H            3.23109800000000       -3.13327800000000       -0.12105500000000
H            4.56309700000000       -0.98390500000000       -0.26678000000000
H            4.05049100000000       -0.77512700000000       -1.91813300000000
H            2.16304800000000       -0.87731700000000        0.49101800000000
H            1.64727600000000       -0.66112600000000       -1.15678600000000
H            3.05150100000000        1.44204300000000       -1.30467600000000
H            3.49364200000000        1.25245200000000        0.37077500000000
H            0.61674000000000        1.57535900000000       -0.62618600000000
H            1.58155400000000        2.88798600000000       -0.00643300000000
H            1.80200400000000        1.67616000000000        2.19662200000000
H            0.78214600000000        0.40533900000000        1.59663000000000
H           -0.03388900000000        3.33133100000000        1.96857200000000
H           -0.51961600000000        1.99767200000000        2.98388900000000
H           -2.34719200000000        2.62289800000000        1.43107300000000
H           -1.31165000000000        2.40214000000000        0.05328200000000
H           -2.13230100000000        0.17303900000000        1.98994100000000
H           -1.08676300000000       -0.04334800000000        0.61407500000000
H           -3.97547800000000        0.94821700000000        0.45243300000000
H           -2.92567400000000        0.73462800000000       -0.91658000000000
H           -4.46731800000000       -1.20395300000000       -0.64771400000000
H           -3.87682000000000       -1.48290900000000        0.97019300000000
H           -2.86778600000000       -3.09186100000000       -0.60411200000000
H           -1.63080100000000       -2.08968900000000        0.09507400000000
H           -2.86352000000000       -1.62353000000000       -2.68044800000000
H           -1.54647000000000       -0.68713400000000       -1.98767100000000
H           -1.29853800000000       -2.37869100000000       -2.38847000000000
41
 energy: -42.139920533412 gnorm: 0.014466354502 xtb: 6.6.1 (8d0f1dd)
C            3.51517267127342       -2.68775829926088       -1.07658471375922
C            3.73162607064317       -1.18716385335837       -0.95382454888157
C            2.47719127175724       -0.46181559291121       -0.47025779106093
C            2.68788485802327        1.04622890017726       -0.33851009544141
C            1.42283311984914        1.79755394388223        0.07830985799235
C            0.97114493293106        1.47613449616830        1.50223118407736
C           -0.27205782437096        2.25464008220262        1.93828562290592
C           -1.50342089511195        2.02113869869950        1.06006953729424
C           -1.92243148719617        0.55454949780275        0.98499085241168
C           -3.13554231690037        0.34239278175403        0.08254740494489
C           -3.56094023323955       -1.12344419069951       -0.02310349269294
C           -2.48635310699699       -2.05650111512000       -0.58750957429796
C           -2.02609434055627       -1.66673951340205       -1.98384946247042
H            4.42165830530726       -3.18854849338748       -1.41538305231060
H            2.72191572847808       -2.90879849144009       -1.79061090051429
H            3.23188020619673       -3.11960883386365       -0.11670959980198
H            4.55364199926849       -0.99070686123567       -0.25649841235855
H            4.03619688118927       -0.77900340552483       -1.92396968011753
H            2.17895148428650       -0.87827822111953        0.49644334190701
H            1.65521046559320       -0.65468634949961       -1.16851914358906
H            3.03284604219391        1.43779370205967       -1.30212896937270
H            3.48598993714437        1.24219640002375        0.38546879758482
H            0.62236924437113        1.55469289654502       -0.62621179766878
H            1.59902546500833        2.87621169901570       -0.00024568638840
H            1.79168076988198        1.69918352037420        2.19360795449859
H            0.77379091383286        0.40556785103741        1.59333297455548
H           -0.03947200349007        3.32537088483347        1.94457052685216
H           -0.51448743861324        1.97956609948840        2.97085244551612
H           -2.33810053710318        2.61403170410979        1.45090224975533
H           -1.30759131150807        2.39403910601183        0.05012057667129
H           -2.14194200421796        0.18214757712638        1.99141642980056
H           -1.08756200041907       -0.03356588258407        0.59882487915723
H           -3.97675470228711        0.93040418100514        0.46648680880868
H           -2.91697292497639        0.73226086694725       -0.91617391100695
H           -4.45258006384476       -1.18797396559501       -0.65677006120920
H           -3.85368329687915       -1.48289805959515        0.96962455905162
H           -2.88652473426411       -3.07671747495904       -0.61289120463087
H           -1.62697749218791       -2.08074142180054        0.08960818475757
H           -2.86964904014097       -1.62543338421484       -2.67270890912938
H           -1.54318469363454       -0.69081938494853       -1.98120607722914
H           -1.30832791929065       -2.38930509474461       -2.37203310461102
41
 energy: -42.140302899606 gnorm: 0.002513368800 xtb: 6.6.1 (8d0f1dd)
C            3.51340529635515       -2.68502020750267       -1.07685935543699
C            3.73203964777651       -1.18280234310712       -0.95414257795457
C            2.47601979021682       -0.46378345466354       -0.46842655261823
C            2.68903235600418        1.04303535026741       -0.33484537516933
C            1.42261087674469        1.79345807164951        0.07785556744830
C            0.97166168971165        1.47477006228569        1.50190404066868
C           -0.27226906462512        2.25374907855940        1.93397661023543
C           -1.50537940850324        2.02042088284533        1.05844588882052
C           -1.92046163114579        0.55351112945148        0.98435640892682
C           -3.13470379554009        0.34516380753492        0.08381458596370
C           -3.55810023351279       -1.12089206984134       -0.02289527100367
C           -2.48652680479613       -2.05610371017259       -0.58762405289473
C           -2.02526500461478       -1.66810794584004       -1.98612808063614
H            4.42155163468938       -3.17859404737481       -1.41622248259088
H            2.72023753877804       -2.89988937427913       -1.79030753811611
H            3.23198881054089       -3.11098505105037       -0.11569718363248
H            4.54876943287229       -0.99187480731338       -0.25338077182877
H            4.02909671357854       -0.77902060613251       -1.92540445120259
H            2.18629960201506       -0.88199011680755        0.49744527073463
H            1.66047282778839       -0.65127831174612       -1.17223987438051
H            3.02746506439901        1.43470635004484       -1.29823933323638
H            3.48064400792037        1.23450201012939        0.39418242543327
H            0.62737474898700        1.54227478108039       -0.62604754680686
H            1.60651957659383        2.86864485118660        0.00136047720886
H            1.78622722049478        1.71437897580986        2.19145759001062
H            0.77304618940932        0.40725214389355        1.59568845529427
H           -0.04238047040988        3.32281285788942        1.93072084236549
H           -0.51219980515218        1.97269207678542        2.96317705693870
H           -2.33392053392428        2.60912635566374        1.46237953881429
H           -1.31041737100930        2.39047987117932        0.04983859133012
H           -2.14478871746684        0.18696429307722        1.98940191728742
H           -1.08819197505317       -0.02855922982742        0.59109827004827
H           -3.97739828889046        0.92164102087687        0.47577960114979
H           -2.91473735257336        0.73387346720503       -0.91243351522540
H           -4.44464532414070       -1.17921741210447       -0.66029916887160
H           -3.84262907718773       -1.48071501357904        0.96959551718579
H           -2.89887408555070       -3.06840758760147       -0.61778853860219
H           -1.62704670846564       -2.07985171317921        0.08476226427000
H           -2.87150547185617       -1.62535110782461       -2.66886590266634
H           -1.53825993908161       -0.69635085273408       -1.98082780074536
H           -1.31440196137593       -2.39906547473391       -2.36657154651584
41
 energy: -42.140331056418 gnorm: 0.000920218921 xtb: 6.6.1 (8d0f1dd)
C            3.51381617589735       -2.68477473457831       -1.07772171266130
C            3.73278896468101       -1.18183857584434       -0.95467650222848
C            2.47610040867551       -0.46461620250958       -0.46803479991467
C            2.69001364863656        1.04190848868807       -0.33273885756246
C            1.42258842258666        1.79260982387249        0.07780424289188
C            0.97240203446542        1.47612373790698        1.50249526114790
C           -0.27239083591209        2.25514322368445        1.93331698930979
C           -1.50631919638043        2.02090100833536        1.05862498643800
C           -1.91988317674025        0.55349273063254        0.98436600273131
C           -3.13489044311353        0.34601726330060        0.08450119110237
C           -3.55816222939194       -1.12032555378648       -0.02330914019752
C           -2.48757694322235       -2.05695828145951       -0.58820675056604
C           -2.02516457193251       -1.67001728553131       -1.98757640488032
H            4.42150668998345       -3.17805735978335       -1.41776722964005
H            2.71976410073072       -2.89801951568164       -1.79028915559077
H            3.23258198852964       -3.10953321595989       -0.11627123958544
H            4.54919132576040       -0.99102467796377       -0.25423921883768
H            4.02854635586570       -0.77772396029639       -1.92564159920775
H            2.18683550416042       -0.88434459188017        0.49684811886263
H            1.66103521420609       -0.65110741358880       -1.17202332047413
H            3.03005276226923        1.43344327383810       -1.29510803515985
H            3.47993013104661        1.23217277527809        0.39787049131416
H            0.62838127800241        1.53903427951136       -0.62591635551173
H            1.60604935694187        2.86725803225455       -0.00026087015439
H            1.78604170422869        1.71953710862855        2.19098944463191
H            0.77550659093920        0.40882303652970        1.59925223899662
H           -0.04267224466055        3.32374501969961        1.92802891694025
H           -0.51223241885562        1.97471159573927        2.96225885846722
H           -2.33423960450234        2.60777088074449        1.46508253461766
H           -1.31388451188730        2.39180171751011        0.05014834092911
H           -2.14305806085946        0.18623991578877        1.98896016201927
H           -1.08801868897313       -0.02742782542248        0.58948779932822
H           -3.97716016955111        0.92055827178449        0.47890260465264
H           -2.91639264749720        0.73657713011670       -0.91104340686672
H           -4.44443148209729       -1.17783382280586       -0.66044892213919
H           -3.84179911418994       -1.47978881832361        0.96914075925615
H           -2.90274114521605       -3.06753454119263       -0.61934230879556
H           -1.62810692316654       -2.08289081360094        0.08361063800773
H           -2.87160630772131       -1.62422305320501       -2.66953634357311
H           -1.53459456652912       -0.70024313317308       -1.98218509869797
H           -1.31744737520689       -2.40398893725711       -2.36735830939970
41
 energy: -42.140378091849 gnorm: 0.003898775987 xtb: 6.6.1 (8d0f1dd)
C            3.51615667651872       -2.68421842124202       -1.08172584127196
C            3.73547695705105       -1.17982981088661       -0.95706350467066
C            2.47757816710923       -0.46737947848676       -0.46634476138882
C            2.69336164314582        1.03825514210641       -0.32430948136256
C            1.42259717454665        1.78982566565462        0.07804652489195
C            0.97492062640618        1.48344048858872        1.50556204485510
C           -0.27301337291133        2.26208423732674        1.93161266785170
C           -1.50942617822800        2.02280331889621        1.06034078864532
C           -1.91663730731502        0.55341013898849        0.98308716748477
C           -3.13539745844475        0.34806701748245        0.08716600835291
C           -3.55916845591479       -1.11868932683978       -0.02501824889707
C           -2.49314912453341       -2.06063713787122       -0.59146864315822
C           -2.02574858973029       -1.67781324646797       -1.99246763136059
H            4.42172387627849       -3.17786969896782       -1.42502879978201
H            2.71867264405687       -2.89317136086385       -1.79114988550550
H            3.23646174134496       -3.10687950450473       -0.11938554218594
H            4.55237915648894       -0.98857010040653       -0.25844944782896
H            4.02766459734421       -0.77328855849637       -1.92727035620471
H            2.18790209770227       -0.89322339504809        0.49518671560625
H            1.66305707910576       -0.65038303704364       -1.17089798454644
H            3.04276844196846        1.43035069229035       -1.28236232202653
H            3.47702156169290        1.22430348162801        0.41326226674322
H            0.63080399309039        1.52735131667003       -0.62453443768464
H            1.60239194645434        2.86365847406441       -0.00848425221816
H            1.78688058650130        1.73953563539401        2.19017600348060
H            0.78542466204714        0.41602504260251        1.61421278133469
H           -0.04402320058915        3.32998901245584        1.91973172512212
H           -0.51255652697385        1.98632977981981        2.96114668418555
H           -2.33734890622943        2.60298398564189        1.47423137256695
H           -1.32641738234970        2.39829360351228        0.05208175638595
H           -2.13441037087022        0.18187245246360        1.98664784992521
H           -1.08514707115426       -0.02387402054328        0.58293165005036
H           -3.97613015210666        0.91780617134647        0.48991597700898
H           -2.92303872152251        0.74607123756889       -0.90651691673635
H           -4.44582288737957       -1.17360945397667       -0.66073777918158
H           -3.84166232897423       -1.47763323179066        0.96737119676627
H           -2.91723437631914       -3.06661044753878       -0.62529731586512
H           -1.63387839654801       -2.09543128834837        0.07969358789791
H           -2.87230961338049       -1.61842881105247       -2.67289571874102
H           -1.51981535196175       -0.71592765150610       -1.98682997180775
H           -1.33054785541711       -2.42339191262000       -2.37217192673119
41
 energy: -42.140396691826 gnorm: 0.002617608181 xtb: 6.6.1 (8d0f1dd)
C            3.51690825763817       -2.68409527535744       -1.08304845319740
C            3.73590003391320       -1.18018177571093       -0.95766090618867
C            2.47844362459199       -0.46771320018078       -0.46588996250815
C            2.69388875902046        1.03774340082134       -0.32173688145658
C            1.42257479727597        1.78913748969925        0.07838656283860
C            0.97520457093660        1.48631457350432        1.50675706603606
C           -0.27334375468295        2.26434884015809        1.93140683153922
C           -1.50968104489577        2.02298347246321        1.06087815185001
C           -1.91501994087866        0.55313450926748        0.98200947718616
C           -3.13485619481970        0.34767398088208        0.08756089112500
C           -3.55967666449752       -1.11854419917872       -0.02541156374150
C           -2.49522409849831       -2.06163387822693       -0.59252113457636
C           -2.02684379635890       -1.67959451125728       -1.99293231306307
H            4.42214221863186       -3.17776426380625       -1.42765533856684
H            2.71883771177916       -2.89328731991968       -1.79193109390162
H            3.23847653317735       -3.10799612918543       -0.12073839676032
H            4.55368557700080       -0.98894514925467       -0.25962151416429
H            4.02759928648780       -0.77288310663361       -1.92802659085413
H            2.18824115661211       -0.89482893707566        0.49523028882246
H            1.66369330473363       -0.64983335529872       -1.17082577179265
H            3.04634868826547        1.43086387849095       -1.27855032964890
H            3.47588468758115        1.22302488697689        0.41811139192916
H            0.63060508944128        1.52433415564444       -0.62339124277301
H            1.60109762804585        2.86321749438647       -0.01136191547864
H            1.78740558693981        1.74496005462372        2.19058984767246
H            0.78733580743915        0.41874185787082        1.61822274408566
H           -0.04520858306775        3.33271448106533        1.91798977865282
H           -0.51236683779000        1.99067133125669        2.96188251529199
H           -2.33873710814494        2.60146715651069        1.47572001829359
H           -1.32810547215883        2.40014701638226        0.05278718908567
H           -2.13112002463268        0.17989683199390        1.98559873628214
H           -1.08313739480188       -0.02294725149371        0.58033114099431
H           -3.97521372385411        0.91743328044209        0.49182908404923
H           -2.92398688637414        0.74673229094558       -0.90621417224570
H           -4.44694063506224       -1.17229998255257       -0.66086017058958
H           -3.84277287968518       -1.47807474943084        0.96687296169342
H           -2.92089360646054       -3.06724728162959       -0.62658497949850
H           -1.63616196963426       -2.09832107921613        0.07909608896290
H           -2.87309297433930       -1.61575350929102       -2.67349113598091
H           -1.51637103849707       -0.72005905199065       -1.98691811252555
H           -1.33515869037706       -2.42793997669494       -2.37389478687849
41
 energy: -42.140428358689 gnorm: 0.001222663119 xtb: 6.6.1 (8d0f1dd)
C            3.51946006929294       -2.68362503695555       -1.08779929371973
C            3.73713830836409       -1.18117437594025       -0.95949718054387
C            2.48112278883425       -0.46871305597794       -0.46400956936628
C            2.69563922756684        1.03617257912789       -0.31266622942229
C            1.42229485063925        1.78678044268917        0.07986271755184
C            0.97598133896646        1.49602354436470        1.51120771659652
C           -0.27470527112609        2.27207300456719        1.93057869015332
C           -1.51023016053169        2.02299022510032        1.06196850984773
C           -1.90844838150117        0.55138147457241        0.97772862184604
C           -3.13209528100429        0.34601299317187        0.08838783174687
C           -3.56156215120026       -1.11812512186817       -0.02621242670339
C           -2.50252786929282       -2.06525565530957       -0.59546290095312
C           -2.03142563389899       -1.68496051096319       -1.99391833289792
H            4.42404730820465       -3.17610508965932       -1.43735139891806
H            2.71944892083058       -2.89380128931700       -1.79475534617257
H            3.24585805288216       -3.11248504086404       -0.12585331741884
H            4.55759422996113       -0.99072082298411       -0.26323753789249
H            4.02711896330041       -0.77153630588614       -1.93024704161813
H            2.18946858267619       -0.89980544938697        0.49566425871953
H            1.66602389068750       -0.64751850520916       -1.17041045669555
H            3.05768145289883        1.43312602635194       -1.26511822580577
H            3.47169312140836        1.21880869788124        0.43493087288643
H            0.62986632279635        1.51357949268770       -0.61888234722141
H            1.59678581612712        2.86139506017700       -0.02078130026067
H            1.78856876603278        1.76347136722256        2.19248331320120
H            0.79288819717875        0.42820423074644        1.63190946690076
H           -0.05036745469662        3.34200974037055        1.91139018856862
H           -0.51186000720107        2.00527313023691        2.96402237456841
H           -2.34330394478319        2.59548534876102        1.47931201037718
H           -1.33225424577747        2.40528878813585        0.05468327875405
H           -2.11866248369312        0.17239676076087        1.98116612265371
H           -1.07535642817095       -0.01979094740484        0.57010479684973
H           -3.97059233450169        0.91680639237471        0.49700642629670
H           -2.92539725439163        0.74665662159182       -0.90609432990528
H           -4.45047676354970       -1.16701675623271       -0.66102440956487
H           -3.84670175279091       -1.47938200512970        0.96554018609954
H           -2.93343469326532       -3.06947009426564       -0.63021101139943
H           -1.64407540555978       -2.10751882120439        0.07732792540958
H           -2.87721427012728       -1.60523263895696       -2.67404131583140
H           -1.50553384255880       -0.73350622975926       -1.98574020250221
H           -1.35209457902576       -2.44259516761728       -2.37996713421445
41
 energy: -42.140437171160 gnorm: 0.001373851435 xtb: 6.6.1 (8d0f1dd)
C            3.52054357061025       -2.68344529327918       -1.08995322693208
C            3.73742562309672       -1.18120230962888       -0.95974463718743
C            2.48172930631565       -0.46893493334786       -0.46295272724314
C            2.69626387294278        1.03576890386202       -0.30911788424615
C            1.42209199684830        1.78607636504471        0.08099257431458
C            0.97607853703339        1.49942434457584        1.51328685851774
C           -0.27552737573579        2.27485253616179        1.93032317248014
C           -1.50989994225149        2.02229975198205        1.06125780952591
C           -1.90487987814241        0.54990350179749        0.97531885290847
C           -3.12998422757159        0.34498435459065        0.08787693437043
C           -3.56264597724013       -1.11816273564193       -0.02573753396438
C           -2.50546665749149       -2.06686090421860       -0.59552084849757
C           -2.03427110970242       -1.68614515817280       -1.99356085234167
H            4.42522765858635       -3.17427779846087       -1.44190698670342
H            2.71973433572673       -2.89381788827285       -1.79603579534188
H            3.24920690835790       -3.11473301150849       -0.12840810339017
H            4.55841389624894       -0.99159313286506       -0.26384223996051
H            4.02676894162159       -0.77060468225840       -1.93032578037752
H            2.18981468400112       -0.90115711115753        0.49613159863243
H            1.66676143033537       -0.64634088149062       -1.16985062945408
H            3.06091971350592        1.43410399314420       -1.25993634697766
H            3.47014381105896        1.21738123171839        0.44091386071664
H            0.62973908467159        1.50961804546077       -0.61647926472330
H            1.59518895885308        2.86054056942758       -0.02327588345641
H            1.78837716730267        1.76975782163193        2.19372813068371
H            0.79399290389608        0.43182461182777        1.63694433311674
H           -0.05306888836164        3.34519981608598        1.90866061670964
H           -0.51247945287688        2.01036810937251        2.96444204376596
H           -2.34478847779041        2.59239091534390        1.47826266077350
H           -1.33196656621043        2.40563562615081        0.05437396951728
H           -2.11250091398322        0.16864836186453        1.97840445822628
H           -1.07153309600078       -0.01878718960792        0.56483057795172
H           -3.96692008891221        0.91774531616055        0.49694519805865
H           -2.92370458904937        0.74402934759599       -0.90731000466669
H           -4.45178182727635       -1.16485171379179       -0.66047481495745
H           -3.84845770132358       -1.47918263611564        0.96590286137293
H           -2.93784851044007       -3.07045641337242       -0.63047012529168
H           -1.64704769412735       -2.11036483962775        0.07723771728702
H           -2.88037029582725       -1.59983162371345       -2.67240918483551
H           -1.50309466694175       -0.73782474115827       -1.98377661728689
H           -1.35982446375674       -2.44638152610906       -2.38275074109417
41
 energy: -42.140449100735 gnorm: 0.000426604038 xtb: 6.6.1 (8d0f1dd)
C            3.52220351212796       -2.68291508897853       -1.09325163445671
C            3.73763294904708       -1.18030555605175       -0.95918672773504
C            2.48173805922758       -0.46912901600041       -0.46087844347409
C            2.69704241454819        1.03540818967198       -0.30456609000644
C            1.42183183300774        1.78558378547903        0.08349466752711
C            0.97615601842377        1.50260389296751        1.51662252649697
C           -0.27699118927974        2.27773247452620        1.92985471757118
C           -1.50863973376475        2.02057530321816        1.05813812109821
C           -1.89887352401857        0.54697741786870        0.97071860642713
C           -3.12598702436726        0.34343594851811        0.08568727910252
C           -3.56434766333519       -1.11838579976297       -0.02373817986077
C           -2.50942160957197       -2.06939700337444       -0.59388226985839
C           -2.03965458932110       -1.68642133918071       -1.99215838715321
H            4.42715055129964       -3.17030887474702       -1.44909927680604
H            2.72007084153244       -2.89245504968423       -1.79796794351624
H            3.25411950514955       -3.11768821523641       -0.13250532214674
H            4.55836227329713       -0.99236015170437       -0.26297828370179
H            4.02643769189961       -0.76777433769222       -1.92881524593742
H            2.18972034051576       -0.90254947409641        0.49732975255044
H            1.66716997694171       -0.64478001302299       -1.16823123635969
H            3.06342497321304        1.43487836672360       -1.25380511712623
H            3.46886640837755        1.21564411050943        0.44743147831854
H            0.63016268633750        1.50542558449144       -0.61285422700288
H            1.59349491680562        2.85954826099384       -0.02405271206793
H            1.78740404096976        1.77608338465273        2.19647796961938
H            0.79449096116494        0.43547706447673        1.64331855726953
H           -0.05680275588747        3.34818874072739        1.90524197885877
H           -0.51539585721929        2.01548890430497        2.96392142391598
H           -2.34632602532334        2.58761225219818        1.47277112402869
H           -1.32904294284706        2.40391712992466        0.05173967008206
H           -2.10260074431617        0.16262423323089        1.97305443868336
H           -1.06550145066231       -0.01811811454976        0.55591263089664
H           -3.95971090026787        0.92113814155431        0.49363866857369
H           -2.91872974112692        0.73751956637114       -0.91108354253079
H           -4.45358560631305       -1.16279572824482       -0.65800028082558
H           -3.85036331526801       -1.47696427450924        0.96841791975377
H           -2.94306703014992       -3.07210174003105       -0.62914071024351
H           -1.65052343474563       -2.11363575035304        0.07794119803024
H           -2.88752703510288       -1.59102729430843       -2.66730263765089
H           -1.50223354002581       -0.74190059233407       -1.97927761714496
H           -1.37179424097222       -2.44925233854610       -2.38694284319879
41
 energy: -42.140452574793 gnorm: 0.000343856877 xtb: 6.6.1 (8d0f1dd)
C            3.52305383518445       -2.68214465950124       -1.09491605613649
C            3.73798927818879       -1.17952442205062       -0.95859208820154
C            2.48182431128272       -0.46933689634474       -0.45968389958725
C            2.69752288627350        1.03506149896832       -0.30249487145601
C            1.42215387413946        1.78537516780664        0.08498572256505
C            0.97629732854118        1.50350464275625        1.51823308491980