      -----------------------------------------------------------      
     |                   =====================                   |     
     |                           x T B                           |     
     |                   =====================                   |     
     |                         S. Grimme                         |     
     |          Mulliken Center for Theoretical Chemistry        |     
     |                    University of Bonn                     |     
      -----------------------------------------------------------      

   * xtb version 6.6.1 (8d0f1dd) compiled by 'stahn@M-Bot' on 2023-08-01

   xtb is free software: you can redistribute it and/or modify it under
   the terms of the GNU Lesser General Public License as published by
   the Free Software Foundation, either version 3 of the License, or
   (at your option) any later version.
   
   xtb is distributed in the hope that it will be useful,
   but WITHOUT ANY WARRANTY; without even the implied warranty of
   MERCHANTABILITY or FITNESS FOR A PARTICULAR PURPOSE.  See the
   GNU Lesser General Public License for more details.
   
   Cite this work as:
   * C. Bannwarth, E. Caldeweyher, S. Ehlert, A. Hansen, P. Pracht,
     J. Seibert, S. Spicher, S. Grimme, WIREs Comput. Mol. Sci., 2020, 11,
     e01493. DOI: 10.1002/wcms.1493
   
   for GFN2-xTB:
   * C. Bannwarth, S. Ehlert and S. Grimme., J. Chem. Theory Comput., 2019,
     15, 1652-1671. DOI: 10.1021/acs.jctc.8b01176
   for GFN1-xTB:
   * S. Grimme, C. Bannwarth, P. Shushkov, J. Chem. Theory Comput., 2017,
     13, 1989-2009. DOI: 10.1021/acs.jctc.7b00118
   for GFN0-xTB:
   * P. Pracht, E. Caldeweyher, S. Ehlert, S. Grimme, ChemRxiv, 2019, preprint.
     DOI: 10.26434/chemrxiv.8326202.v1
   for GFN-FF:
   * S. Spicher and S. Grimme, Angew. Chem. Int. Ed., 2020, 59, 15665-15673.
     DOI: 10.1002/anie.202004239
   
   for ALPB and GBSA implicit solvation:
   * S. Ehlert, M. Stahn, S. Spicher, S. Grimme, J. Chem. Theory Comput.,
     2021, 17, 4250-4261. DOI: 10.1021/acs.jctc.1c00471
   
   for DFT-D4:
   * E. Caldeweyher, C. Bannwarth and S. Grimme, J. Chem. Phys., 2017,
     147, 034112. DOI: 10.1063/1.4993215
   * E. Caldeweyher, S. Ehlert, A. Hansen, H. Neugebauer, S. Spicher,
     C. Bannwarth and S. Grimme, J. Chem. Phys., 2019, 150, 154122.
     DOI: 10.1063/1.5090222
   * E. Caldeweyher, J.-M. Mewes, S. Ehlert and S. Grimme, Phys. Chem. Chem. Phys.
     2020, 22, 8499-8512. DOI: 10.1039/D0CP00502A
   
   for sTDA-xTB:
   * S. Grimme and C. Bannwarth, J. Chem. Phys., 2016, 145, 054103.
     DOI: 10.1063/1.4959605
   
   in the mass-spec context:
   * V. Asgeirsson, C. Bauer and S. Grimme, Chem. Sci., 2017, 8, 4879.
     DOI: 10.1039/c7sc00601b
   * J. Koopman and S. Grimme, ACS Omega 2019, 4, 12, 15120-15133.
     DOI: 10.1021/acsomega.9b02011
   
   for metadynamics refer to:
   * S. Grimme, J. Chem. Theory Comput., 2019, 155, 2847-2862
     DOI: 10.1021/acs.jctc.9b00143
   
   for SPH calculations refer to:
   * S. Spicher and S. Grimme, J. Chem. Theory Comput., 2021, 17, 1701-1714
     DOI: 10.1021/acs.jctc.0c01306
   
   with help from (in alphabetical order)
   P. Atkinson, C. Bannwarth, F. Bohle, G. Brandenburg, E. Caldeweyher
   M. Checinski, S. Dohm, S. Ehlert, S. Ehrlich, I. Gerasimov, C. Hölzer
   A. Katbashev, J. Koopman, C. Lavigne, S. Lehtola, F. März, M. Müller,
   F. Musil, H. Neugebauer, J. Pisarek, C. Plett, P. Pracht, F. Pultar,
   J. Seibert, P. Shushkov, S. Spicher, M. Stahn, M. Steiner, T. Strunk,
   J. Stückrath, T. Rose, and J. Unsleber
   
 * started run on 2024/04/23 at 12:10:30.879     

           -------------------------------------------------
          |                Calculation Setup                |
           -------------------------------------------------

          program call               : xtb unfolded.xyz --gfn 2 --ohess -P 4
          coordinate file            : unfolded.xyz
          omp threads                :                     4

   ID    Z sym.   atoms
    1    6 C      1-12
    2    1 H      13-38

           -------------------------------------------------
          |                 G F N 2 - x T B                 |
           -------------------------------------------------

        Reference                      10.1021/acs.jctc.8b01176
      * Hamiltonian:
        H0-scaling (s, p, d)           1.850000    2.230000    2.230000
        zeta-weighting                 0.500000
      * Dispersion:
        s8                             2.700000
        a1                             0.520000
        a2                             5.000000
        s9                             5.000000
      * Repulsion:
        kExp                           1.500000    1.000000
        rExp                           1.000000
      * Coulomb:
        alpha                          2.000000
        third order                    shell-resolved
        anisotropic                    true
        a3                             3.000000
        a5                             4.000000
        cn-shift                       1.200000
        cn-exp                         4.000000
        max-rad                        5.000000


          ...................................................
          :                      SETUP                      :
          :.................................................:
          :  # basis functions                  74          :
          :  # atomic orbitals                  74          :
          :  # shells                           50          :
          :  # electrons                        74          :
          :  max. iterations                   250          :
          :  Hamiltonian                  GFN2-xTB          :
          :  restarted?                      false          :
          :  GBSA solvation                  false          :
          :  PC potential                    false          :
          :  electronic temp.          300.0000000     K    :
          :  accuracy                    1.0000000          :
          :  -> integral cutoff          0.2500000E+02      :
          :  -> integral neglect         0.1000000E-07      :
          :  -> SCF convergence          0.1000000E-05 Eh   :
          :  -> wf. convergence          0.1000000E-03 e    :
          :  Broyden damping             0.4000000          :
          ...................................................

 iter      E             dE          RMSdq      gap      omega  full diag
   1    -39.4423604 -0.394424E+02  0.253E+00   12.18       0.0  T
   2    -39.5429689 -0.100608E+00  0.137E+00   12.09       1.0  T
   3    -39.5442804 -0.131155E-02  0.726E-01   12.09       1.0  T
   4    -39.5445618 -0.281389E-03  0.845E-02   12.12       1.0  T
   5    -39.5445708 -0.900501E-05  0.440E-02   12.12       1.0  T
   6    -39.5445732 -0.233734E-05  0.224E-03   12.12       7.2  T
   7    -39.5445732 -0.598613E-07  0.100E-03   12.12      16.2  T
   8    -39.5445732 -0.282798E-08  0.294E-04   12.12      55.2  T
   9    -39.5445732 -0.182922E-09  0.840E-05   12.12     193.2  T

   *** convergence criteria satisfied after 9 iterations ***

         #    Occupation            Energy/Eh            Energy/eV
      -------------------------------------------------------------
         1        2.0000           -0.6221643             -16.9300
       ...           ...                  ...                  ...
        31        2.0000           -0.4292457             -11.6804
        32        2.0000           -0.4233833             -11.5208
        33        2.0000           -0.4207298             -11.4486
        34        2.0000           -0.4169697             -11.3463
        35        2.0000           -0.4151219             -11.2960
        36        2.0000           -0.4140814             -11.2677
        37        2.0000           -0.4102989             -11.1648 (HOMO)
        38                          0.0352340               0.9588 (LUMO)
        39                          0.0542075               1.4751
        40                          0.0943090               2.5663
        41                          0.0979978               2.6667
        42                          0.1098181               2.9883
       ...                                ...                  ...
        74                          0.3090265               8.4090
      -------------------------------------------------------------
                  HL-Gap            0.4455329 Eh           12.1236 eV
             Fermi-level           -0.1875324 Eh           -5.1030 eV

 SCC (total)                   0 d,  0 h,  0 min,  0.044 sec
 SCC setup                      ...        0 min,  0.000 sec (  0.838%)
 Dispersion                     ...        0 min,  0.001 sec (  1.442%)
 classical contributions        ...        0 min,  0.000 sec (  0.403%)
 integral evaluation            ...        0 min,  0.001 sec (  3.379%)
 iterations                     ...        0 min,  0.033 sec ( 74.691%)
 molecular gradient             ...        0 min,  0.008 sec ( 18.200%)
 printout                       ...        0 min,  0.000 sec (  0.962%)

         :::::::::::::::::::::::::::::::::::::::::::::::::::::
         ::                     SUMMARY                     ::
         :::::::::::::::::::::::::::::::::::::::::::::::::::::
         :: total energy             -38.976902110762 Eh    ::
         :: gradient norm              0.031150990629 Eh/a0 ::
         :: HOMO-LUMO gap             12.123566987276 eV    ::
         ::.................................................::
         :: SCC energy               -39.544573228366 Eh    ::
         :: -> isotropic ES            0.006240296231 Eh    ::
         :: -> anisotropic ES          0.012967636522 Eh    ::
         :: -> anisotropic XC          0.023344163216 Eh    ::
         :: -> dispersion             -0.024007790636 Eh    ::
         :: repulsion energy           0.567860966435 Eh    ::
         :: add. restraining           0.000000000000 Eh    ::
         :: total charge               0.000000000000 e     ::
         :::::::::::::::::::::::::::::::::::::::::::::::::::::

      ----------------------------------------------------------- 
     |                   =====================                   |
     |                        A N C O P T                        |
     |                   =====================                   |
     |               Approximate Normal Coordinate               |
     |                Rational Function Optimizer                |
      ----------------------------------------------------------- 

          ...................................................
          :                      SETUP                      :
          :.................................................:
          :   optimization level            normal          :
          :   max. optcycles                   200          :
          :   ANC micro-cycles                  20          :
          :   degrees of freedom               108          :
          :.................................................:
          :   RF solver                   davidson          :
          :   write xtbopt.log                true          :
          :   linear?                        false          :
          :   energy convergence         0.5000000E-05 Eh   :
          :   grad. convergence          0.1000000E-02 Eh/α :
          :   maxmium RF displ.          2.0000000          :
          :   Hlow (freq-cutoff)         0.2000000E-01      :
          :   Hmax (freq-cutoff)         5.0000000          :
          :   S6 in model hess.         70.0000000          :
          ...................................................

generating ANC from model Hessian ...
Using Lindh-Hessian (1995)
 Shifting diagonal of input Hessian by   1.948972373323021E-002
 Lowest  eigenvalues of input Hessian
    0.000000    0.000000    0.000000    0.000000    0.000000    0.000000
    0.020000    0.020982    0.021588    0.021896    0.023088    0.024047
    0.024127    0.024446    0.026316    0.026495    0.027886    0.028123
 Highest eigenvalues
    1.228611    1.241234    1.256315    1.285129    1.318719    1.335858
 

........................................................................
.............................. CYCLE    1 ..............................
........................................................................

 iter      E             dE          RMSdq      gap      omega  full diag
   1    -39.5445732 -0.395446E+02  0.236E-05   12.12       0.0  T
   2    -39.5445732 -0.284928E-11  0.125E-05   12.12    1297.4  T
   3    -39.5445732 -0.234479E-12  0.542E-06   12.12    2993.6  T
     SCC iter.                  ...        0 min,  0.007 sec
     gradient                   ...        0 min,  0.005 sec
 * total energy  :   -38.9769021 Eh     change       -0.1348610E-10 Eh
   gradient norm :     0.0311507 Eh/α   predicted     0.0000000E+00 (-100.00%)
   displ. norm   :     0.1791320 α      lambda       -0.3155570E-02
   maximum displ.:     0.1089083 α      in ANC's #49, #47, #33, ...

........................................................................
.............................. CYCLE    2 ..............................
........................................................................

 iter      E             dE          RMSdq      gap      omega  full diag
   1    -39.5542705 -0.395543E+02  0.127E-01   12.22       0.0  T
   2    -39.5542750 -0.454725E-05  0.730E-02   12.22       1.0  T
   3    -39.5542759 -0.873080E-06  0.355E-03   12.22       4.6  T
   4    -39.5542760 -0.582089E-07  0.129E-03   12.22      12.6  T
   5    -39.5542760 -0.249448E-08  0.671E-04   12.22      24.2  T
   6    -39.5542760 -0.475040E-09  0.391E-05   12.22     414.8  T
     SCC iter.                  ...        0 min,  0.010 sec
     gradient                   ...        0 min,  0.005 sec
 * total energy  :   -38.9789941 Eh     change       -0.2091942E-02 Eh
   gradient norm :     0.0140651 Eh/α   predicted    -0.1628425E-02 ( -22.16%)
   displ. norm   :     0.1078720 α      lambda       -0.6299281E-03
   maximum displ.:     0.0462111 α      in ANC's #49, #6, #10, ...

........................................................................
.............................. CYCLE    3 ..............................
........................................................................

 iter      E             dE          RMSdq      gap      omega  full diag
   1    -39.5615014 -0.395615E+02  0.639E-02   12.29       0.0  T
   2    -39.5615044 -0.307511E-05  0.361E-02   12.30       1.0  T
   3    -39.5615046 -0.150716E-06  0.385E-03   12.29       4.2  T
   4    -39.5615046 -0.333605E-07  0.669E-04   12.29      24.2  T
   5    -39.5615046 -0.223390E-08  0.375E-04   12.29      43.3  T
     SCC iter.                  ...        0 min,  0.025 sec
     gradient                   ...        0 min,  0.004 sec
 * total energy  :   -38.9793408 Eh     change       -0.3467580E-03 Eh
   gradient norm :     0.0021703 Eh/α   predicted    -0.3187221E-03 (  -8.09%)
   displ. norm   :     0.0357779 α      lambda       -0.3385658E-04
   maximum displ.:     0.0171412 α      in ANC's #6, #13, #10, ...

........................................................................
.............................. CYCLE    4 ..............................
........................................................................

 iter      E             dE          RMSdq      gap      omega  full diag
   1    -39.5630057 -0.395630E+02  0.111E-02   12.32       0.0  T
   2    -39.5630059 -0.117693E-06  0.626E-03   12.32       2.6  T
   3    -39.5630059 -0.369219E-08  0.821E-04   12.32      19.8  T
   4    -39.5630059 -0.112944E-08  0.157E-04   12.32     103.1  T
     SCC iter.                  ...        0 min,  0.008 sec
     gradient                   ...        0 min,  0.005 sec
 * total energy  :   -38.9793657 Eh     change       -0.2486177E-04 Eh
   gradient norm :     0.0010367 Eh/α   predicted    -0.1695259E-04 ( -31.81%)
   displ. norm   :     0.0721682 α      lambda       -0.2573153E-04
   maximum displ.:     0.0356296 α      in ANC's #6, #13, #10, ...

........................................................................
.............................. CYCLE    5 ..............................
........................................................................

 iter      E             dE          RMSdq      gap      omega  full diag
   1    -39.5644354 -0.395644E+02  0.181E-02   12.37       0.0  T
   2    -39.5644355 -0.766409E-07  0.105E-02   12.37       1.6  T
   3    -39.5644355 -0.144172E-07  0.568E-04   12.37      28.6  T
   4    -39.5644355 -0.107590E-08  0.263E-04   12.37      61.8  T
     SCC iter.                  ...        0 min,  0.004 sec
     gradient                   ...        0 min,  0.011 sec
 * total energy  :   -38.9793826 Eh     change       -0.1688967E-04 Eh
   gradient norm :     0.0019972 Eh/α   predicted    -0.1289950E-04 ( -23.62%)
   displ. norm   :     0.0108483 α      lambda       -0.4683498E-05
   maximum displ.:     0.0052410 α      in ANC's #14, #1, #17, ...

........................................................................
.............................. CYCLE    6 ..............................
........................................................................

 iter      E             dE          RMSdq      gap      omega  full diag
   1    -39.5637730 -0.395638E+02  0.341E-03   12.37       0.0  T
   2    -39.5637731 -0.477935E-07  0.189E-03   12.37       8.6  T
   3    -39.5637731 -0.687166E-09  0.589E-04   12.37      27.5  T
   4    -39.5637731 -0.231012E-09  0.697E-05   12.37     232.6  T
     SCC iter.                  ...        0 min,  0.003 sec
     gradient                   ...        0 min,  0.007 sec
 * total energy  :   -38.9793875 Eh     change       -0.4889346E-05 Eh
   gradient norm :     0.0004753 Eh/α   predicted    -0.2350244E-05 ( -51.93%)
   displ. norm   :     0.0205888 α      lambda       -0.2619728E-05
   maximum displ.:     0.0108007 α      in ANC's #1, #14, #13, ...

   *** GEOMETRY OPTIMIZATION CONVERGED AFTER 6 ITERATIONS ***

------------------------------------------------------------------------
 total energy gain   :        -0.0024853 Eh       -1.5596 kcal/mol
 total RMSD          :         0.0566222 a0        0.0300 Å
 total power (kW/mol):        -1.0875435 (step)  -47.6927 (real)
------------------------------------------------------------------------

 ANCopt (total)                0 d,  0 h,  0 min,  0.137 sec
 optimizer setup                ...        0 min,  0.001 sec (  0.555%)
 model hessian                  ...        0 min,  0.020 sec ( 14.635%)
 ANC generation                 ...        0 min,  0.003 sec (  2.314%)
 coordinate transformation      ...        0 min,  0.000 sec (  0.088%)
 single point calculation       ...        0 min,  0.107 sec ( 78.444%)
 optimization log               ...        0 min,  0.001 sec (  0.551%)
 hessian update                 ...        0 min,  0.003 sec (  2.501%)
 rational function              ...        0 min,  0.000 sec (  0.362%)

================
 final structure:
================
38
 xtb: 6.6.1 (8d0f1dd)
C            6.56610687473206        0.79223690550168        0.18793089236215
C            5.14076771885502        1.05540082875687       -0.28250336388404
C            4.17373108875471       -0.02465638765098        0.19627409675240
C            2.74476066733851        0.23758538501001       -0.27198632789258
C            1.77324521935246       -0.84043385653619        0.20225275644450
C            0.34527017219131       -0.56315655215006       -0.26173257375385
C           -0.63078898530701       -1.63219014230083        0.22422128600757
C           -2.05625836758151       -1.43313030705046       -0.29294811745154
C           -2.73475227620372       -0.18476707963278        0.26660123533446
C           -4.18421188853152       -0.06444161732294       -0.19809919428513
C           -4.85399648624867        1.19563045864870        0.34496939637562
C           -6.29997090995503        1.31982577471060       -0.11954922815626
H            7.23658482578112        1.57301718405256       -0.16361650669418
H            6.92228929200400       -0.16308384332996       -0.19154877587475
H            6.60977824213252        0.76546539841455        1.27462529982992
H            4.80885597988754        2.02679848699385        0.09133800752349
H            5.12088222335817        1.09789042050819       -1.37396760282799
H            4.19364845049479       -0.06825781677690        1.28789682133275
H            4.50418554540623       -0.99650686418190       -0.17814473816456
H            2.41557350926182        1.20934041922163        0.10418409729115
H            2.72580897207048        0.28440366570370       -1.36354451418770
H            2.09707338785196       -1.81222763486565       -0.17808213904925
H            1.79416642111582       -0.89074946565603        1.29356952837811
H            0.32222925664401       -0.52364394537576       -1.35343394709752
H            0.03852815471729        0.41472007235395        0.11281808230185
H           -0.27202543720769       -2.60957163738182       -0.10843938959100
H           -0.64182237132143       -1.64078307583963        1.31674615181766
H           -2.65209779010980       -2.30742291643819       -0.01861126608142
H           -2.03901946827444       -1.37647834797780       -1.38396773692187
H           -2.18946758298464        0.70546639350732       -0.05111663551199
H           -2.70805941793506       -0.21925364340593        1.35846617079739
H           -4.21234041222698       -0.04556681058335       -1.29030537424037
H           -4.74569092800712       -0.94237646928631        0.13054059783443
H           -4.29124307550113        2.07209602603124        0.01514829496894
H           -4.82415747512399        1.17640666488350        1.43689545644843
H           -6.88322266306170        0.46509803784955        0.21621723165529
H           -6.34922054678107        1.36128555592842       -1.20555518267460
H           -6.75433991958733        2.22376773566716        0.27951821088448
           -------------------------------------------------
          |                Final Singlepoint                |
           -------------------------------------------------

          ...................................................
          :                      SETUP                      :
          :.................................................:
          :  # basis functions                  74          :
          :  # atomic orbitals                  74          :
          :  # shells                           50          :
          :  # electrons                        74          :
          :  max. iterations                   250          :
          :  Hamiltonian                  GFN2-xTB          :
          :  restarted?                      false          :
          :  GBSA solvation                  false          :
          :  PC potential                    false          :
          :  electronic temp.          300.0000000     K    :
          :  accuracy                    1.0000000          :
          :  -> integral cutoff          0.2500000E+02      :
          :  -> integral neglect         0.1000000E-07      :
          :  -> SCF convergence          0.1000000E-05 Eh   :
          :  -> wf. convergence          0.1000000E-03 e    :
          :  Broyden damping             0.4000000          :
          ...................................................

 iter      E             dE          RMSdq      gap      omega  full diag
   1    -39.5637731 -0.395638E+02  0.345E-05   12.37       0.0  T
   2    -39.5637731 -0.795808E-12  0.195E-05   12.37     831.2  T
   3    -39.5637731 -0.277112E-12  0.210E-06   12.37    7732.2  T

   *** convergence criteria satisfied after 3 iterations ***

         #    Occupation            Energy/Eh            Energy/eV
      -------------------------------------------------------------
         1        2.0000           -0.6231132             -16.9558
       ...           ...                  ...                  ...
        31        2.0000           -0.4284257             -11.6581
        32        2.0000           -0.4243903             -11.5482
        33        2.0000           -0.4208876             -11.4529
        34        2.0000           -0.4183091             -11.3828
        35        2.0000           -0.4170815             -11.3494
        36        2.0000           -0.4123092             -11.2195
        37        2.0000           -0.4109453             -11.1824 (HOMO)
        38                          0.0436763               1.1885 (LUMO)
        39                          0.0624454               1.6992
        40                          0.1059789               2.8838
        41                          0.1085030               2.9525
        42                          0.1135623               3.0902
       ...                                ...                  ...
        74                          0.3263566               8.8806
      -------------------------------------------------------------
                  HL-Gap            0.4546217 Eh           12.3709 eV
             Fermi-level           -0.1836345 Eh           -4.9969 eV

 SCC (total)                   0 d,  0 h,  0 min,  0.015 sec
 SCC setup                      ...        0 min,  0.007 sec ( 49.619%)
 Dispersion                     ...        0 min,  0.000 sec (  0.830%)
 classical contributions        ...        0 min,  0.000 sec (  0.221%)
 integral evaluation            ...        0 min,  0.001 sec (  6.496%)
 iterations                     ...        0 min,  0.002 sec ( 16.406%)
 molecular gradient             ...        0 min,  0.004 sec ( 24.318%)
 printout                       ...        0 min,  0.000 sec (  1.870%)

         :::::::::::::::::::::::::::::::::::::::::::::::::::::
         ::                     SUMMARY                     ::
         :::::::::::::::::::::::::::::::::::::::::::::::::::::
         :: total energy             -38.979387451505 Eh    ::
         :: gradient norm              0.000475558241 Eh/a0 ::
         :: HOMO-LUMO gap             12.370885171962 eV    ::
         ::.................................................::
         :: SCC energy               -39.563773089055 Eh    ::
         :: -> isotropic ES            0.006671966667 Eh    ::
         :: -> anisotropic ES          0.012479154169 Eh    ::
         :: -> anisotropic XC          0.023714845181 Eh    ::
         :: -> dispersion             -0.024100725375 Eh    ::
         :: repulsion energy           0.584579131196 Eh    ::
         :: add. restraining           0.000000000000 Eh    ::
         :: total charge               0.000000000000 e     ::
         :::::::::::::::::::::::::::::::::::::::::::::::::::::

           ------------------------------------------------- 
          |                Numerical Hessian                |
           ------------------------------------------------- 
step length          :   0.00500
SCC accuracy         :   0.30000
Hessian scale factor :   1.00000
frozen atoms in %    :   0.00000    0
RMS gradient         :   0.00048
estimated CPU  time      0.33 min
estimated wall time      0.12 min

writing file <hessian>.

 projected vibrational frequencies (cm⁻¹)
eigval :       -0.00    -0.00    -0.00    -0.00     0.00     0.00
eigval :       25.49    31.09    35.96    61.41    78.25    84.79
eigval :      110.43   119.15   124.00   139.65   155.08   211.49
eigval :      228.11   233.08   234.31   304.85   348.78   372.91
eigval :      441.07   471.65   527.19   765.54   769.92   775.14
eigval :      789.94   804.86   851.17   873.36   927.10   938.83
eigval :      941.14   959.95   982.38  1011.22  1029.54  1051.36
eigval :     1076.42  1081.44  1095.14  1105.45  1107.89  1115.70
eigval :     1123.27  1132.47  1143.32  1176.00  1206.14  1216.16
eigval :     1236.71  1241.55  1257.76  1264.28  1274.21  1278.87
eigval :     1284.64  1284.94  1294.23  1294.95  1299.87  1324.21
eigval :     1330.71  1362.29  1367.45  1377.42  1378.92  1380.40
eigval :     1415.93  1415.97  1491.16  1491.57  1495.84  1496.30
eigval :     1497.88  1498.21  1500.22  1501.38  1502.52  1504.68
eigval :     1504.74  1504.96  1507.91  1507.95  2953.43  2955.23
eigval :     2956.48  2957.05  2957.96  2963.61  2965.55  2970.47
eigval :     2972.87  2973.27  2974.42  2974.58  2976.97  2977.54
eigval :     2979.35  2981.16  2984.14  2985.73  2990.81  2996.92
eigval :     3030.58  3030.61  3032.59  3032.81  3038.08  3038.28
           -------------------------------------------------
          |                Property Printout                |
           -------------------------------------------------

    * Orbital Energies and Occupations

         #    Occupation            Energy/Eh            Energy/eV
      -------------------------------------------------------------
         1        2.0000           -0.6231132             -16.9558
       ...           ...                  ...                  ...
        25        2.0000           -0.4523671             -12.3095
        26        2.0000           -0.4473017             -12.1717
        27        2.0000           -0.4441033             -12.0847
        28        2.0000           -0.4369915             -11.8911
        29        2.0000           -0.4320010             -11.7553
        30        2.0000           -0.4301062             -11.7038
        31        2.0000           -0.4284258             -11.6581
        32        2.0000           -0.4243903             -11.5482
        33        2.0000           -0.4208876             -11.4529
        34        2.0000           -0.4183091             -11.3828
        35        2.0000           -0.4170815             -11.3494
        36        2.0000           -0.4123092             -11.2195
        37        2.0000           -0.4109453             -11.1824 (HOMO)
        38                          0.0436763               1.1885 (LUMO)
        39                          0.0624454               1.6992
        40                          0.1059789               2.8838
        41                          0.1085030               2.9525
        42                          0.1135623               3.0902
        43                          0.1163075               3.1649
        44                          0.1203582               3.2751
        45                          0.1272328               3.4622
        46                          0.1357979               3.6952
        47                          0.1401731               3.8143
        48                          0.1479838               4.0268
       ...                                ...                  ...
        74                          0.3263566               8.8806
      -------------------------------------------------------------
                  HL-Gap            0.4546217 Eh           12.3709 eV
             Fermi-level           -0.1836345 Eh           -4.9969 eV

     #   Z          covCN         q      C6AA      α(0)
     1   6 C        3.752    -0.102    22.511     6.766
     2   6 C        3.801    -0.053    21.523     6.605
     3   6 C        3.803    -0.059    21.633     6.622
     4   6 C        3.803    -0.058    21.620     6.620
     5   6 C        3.803    -0.058    21.620     6.620
     6   6 C        3.802    -0.059    21.629     6.621
     7   6 C        3.802    -0.058    21.618     6.620
     8   6 C        3.802    -0.058    21.616     6.619
     9   6 C        3.802    -0.059    21.632     6.622
    10   6 C        3.803    -0.059    21.635     6.622
    11   6 C        3.801    -0.053    21.521     6.605
    12   6 C        3.752    -0.102    22.510     6.766
    13   1 H        0.925     0.033     2.550     2.497
    14   1 H        0.925     0.033     2.541     2.493
    15   1 H        0.925     0.033     2.541     2.493
    16   1 H        0.924     0.028     2.609     2.526
    17   1 H        0.924     0.028     2.609     2.526
    18   1 H        0.924     0.030     2.592     2.518
    19   1 H        0.924     0.030     2.592     2.518
    20   1 H        0.924     0.028     2.611     2.527
    21   1 H        0.924     0.028     2.609     2.526
    22   1 H        0.924     0.028     2.614     2.528
    23   1 H        0.924     0.029     2.608     2.525
    24   1 H        0.924     0.029     2.596     2.519
    25   1 H        0.924     0.031     2.568     2.506
    26   1 H        0.924     0.028     2.608     2.526
    27   1 H        0.924     0.029     2.595     2.519
    28   1 H        0.924     0.028     2.608     2.526
    29   1 H        0.924     0.029     2.595     2.519
    30   1 H        0.924     0.031     2.574     2.509
    31   1 H        0.924     0.029     2.602     2.522
    32   1 H        0.924     0.029     2.598     2.521
    33   1 H        0.924     0.029     2.604     2.524
    34   1 H        0.924     0.028     2.612     2.527
    35   1 H        0.924     0.028     2.610     2.526
    36   1 H        0.925     0.033     2.543     2.494
    37   1 H        0.925     0.033     2.543     2.494
    38   1 H        0.925     0.032     2.552     2.498

 Mol. C6AA /au·bohr⁶  :       9534.030919
 Mol. C8AA /au·bohr⁸  :     198732.269155
 Mol. α(0) /au        :        145.113272


Wiberg/Mayer (AO) data.
largest (>0.10) Wiberg bond orders for each atom

 ---------------------------------------------------------------------------
     #   Z sym  total        # sym  WBO       # sym  WBO       # sym  WBO
 ---------------------------------------------------------------------------
     1   6 C    3.997 --     2 C    1.019    14 H    0.988    15 H    0.988
                            13 H    0.988
     2   6 C    3.998 --     1 C    1.019     3 C    1.008    17 H    0.979
                            16 H    0.979
     3   6 C    3.997 --     2 C    1.008     4 C    1.007    19 H    0.978
                            18 H    0.978
     4   6 C    3.997 --     3 C    1.007     5 C    1.007    21 H    0.978
                            20 H    0.977
     5   6 C    3.997 --     4 C    1.007     6 C    1.007    23 H    0.978
                            22 H    0.978
     6   6 C    3.997 --     7 C    1.008     5 C    1.007    24 H    0.977
                            25 H    0.975
     7   6 C    3.997 --     6 C    1.008     8 C    1.006    27 H    0.977
                            26 H    0.977
     8   6 C    3.997 --     9 C    1.008     7 C    1.006    29 H    0.977
                            28 H    0.977
     9   6 C    3.998 --     8 C    1.008    10 C    1.007    31 H    0.977
                            30 H    0.975
    10   6 C    3.997 --    11 C    1.008     9 C    1.007    32 H    0.978
                            33 H    0.978
    11   6 C    3.998 --    12 C    1.019    10 C    1.008    35 H    0.979
                            34 H    0.979
    12   6 C    3.997 --    11 C    1.019    36 H    0.988    37 H    0.988
                            38 H    0.988
    13   1 H    0.999 --     1 C    0.988
    14   1 H    0.999 --     1 C    0.988
    15   1 H    0.999 --     1 C    0.988
    16   1 H    0.999 --     2 C    0.979
    17   1 H    0.999 --     2 C    0.979
    18   1 H    0.999 --     3 C    0.978
    19   1 H    0.999 --     3 C    0.978
    20   1 H    0.999 --     4 C    0.977
    21   1 H    0.999 --     4 C    0.978
    22   1 H    0.999 --     5 C    0.978
    23   1 H    0.999 --     5 C    0.978
    24   1 H    0.999 --     6 C    0.977
    25   1 H    0.999 --     6 C    0.975
    26   1 H    0.999 --     7 C    0.977
    27   1 H    0.999 --     7 C    0.977
    28   1 H    0.999 --     8 C    0.977
    29   1 H    0.999 --     8 C    0.977
    30   1 H    0.999 --     9 C    0.975
    31   1 H    0.999 --     9 C    0.977
    32   1 H    0.999 --    10 C    0.978
    33   1 H    0.999 --    10 C    0.978
    34   1 H    0.999 --    11 C    0.979
    35   1 H    0.999 --    11 C    0.979
    36   1 H    0.999 --    12 C    0.988
    37   1 H    0.999 --    12 C    0.988
    38   1 H    0.999 --    12 C    0.988
 ---------------------------------------------------------------------------

Topologies differ in total number of bonds
Writing topology from bond orders to xtbtopo.mol

molecular dipole:
                 x           y           z       tot (Debye)
 q only:        0.000       0.005       0.000
   full:        0.000       0.002       0.000       0.005
molecular quadrupole (traceless):
                xx          xy          yy          xz          yz          zz
 q only:        0.632      -0.044      -0.165       0.225      -0.061      -0.467
  q+dip:       -2.853       0.116       0.545      -0.745       0.325       2.307
   full:       -1.158       0.038       0.189      -0.295       0.148       0.968

           -------------------------------------------------
          |                Geometry Summary                 |
           -------------------------------------------------

      molecular mass/u    :      170.3352903
   center of mass at/Å    :        0.0002076       0.0005124       0.0000188
  moments of inertia/u·Å² :        0.2061011E+03   0.2814978E+04   0.2960462E+04
rotational constants/cm⁻¹ :        0.8179302E-01   0.5988549E-02   0.5694257E-02

 * 37 selected distances

     #   Z          #   Z                                           value/Å
     1   6 C        2   6 C                                       1.5238621
     2   6 C        3   6 C                                       1.5267324
     3   6 C        4   6 C                                       1.5264323
     4   6 C        5   6 C                                       1.5267190
     5   6 C        6   6 C                                       1.5268524
     6   6 C        7   6 C                                       1.5269826
     7   6 C        8   6 C                                       1.5293961 (max)
     8   6 C        9   6 C                                       1.5270431
     9   6 C       10   6 C                                       1.5268786
    10   6 C       11   6 C                                       1.5268651
    11   6 C       12   6 C                                       1.5238256
     1   6 C       13   1 H                                       1.0875405 (min)
     1   6 C       14   1 H                                       1.0878919
     1   6 C       15   1 H                                       1.0879011
     2   6 C       16   1 H                                       1.0924909
     2   6 C       17   1 H                                       1.0924721
     3   6 C       18   1 H                                       1.0926748
     3   6 C       19   1 H                                       1.0926496
     4   6 C       20   1 H                                       1.0927838
     4   6 C       21   1 H                                       1.0927262
     5   6 C       22   1 H                                       1.0926585
     5   6 C       23   1 H                                       1.0926765
     6   6 C       24   1 H                                       1.0926593
     6   6 C       25   1 H                                       1.0911562
     7   6 C       26   1 H                                       1.0930001
     7   6 C       27   1 H                                       1.0926145
     8   6 C       28   1 H                                       1.0930110
     8   6 C       29   1 H                                       1.0926256
     9   6 C       30   1 H                                       1.0912360
     9   6 C       31   1 H                                       1.0927356
    10   6 C       32   1 H                                       1.0927315
    10   6 C       33   1 H                                       1.0927180
    11   6 C       34   1 H                                       1.0925500
    11   6 C       35   1 H                                       1.0925029
    12   6 C       36   1 H                                       1.0878793
    12   6 C       37   1 H                                       1.0879125
    12   6 C       38   1 H                                       1.0875740

 * 2 distinct bonds (by element types)

   Z      Z             #   av. dist./Å        max./Å        min./Å
   1 H    6 C          26     1.0914374     1.0930110     1.0875405
   6 C    6 C          11     1.5265081     1.5293961     1.5238256

           -------------------------------------------------
          |               Frequency Printout                |
           -------------------------------------------------
 projected vibrational frequencies (cm⁻¹)
eigval :       -0.00    -0.00    -0.00    -0.00     0.00     0.00
eigval :       25.49    31.09    35.96    61.41    78.25    84.79
eigval :      110.43   119.15   124.00   139.65   155.08   211.49
eigval :      228.11   233.08   234.31   304.85   348.78   372.91
eigval :      441.07   471.65   527.19   765.54   769.92   775.14
eigval :      789.94   804.86   851.17   873.36   927.10   938.83
eigval :      941.14   959.95   982.38  1011.22  1029.54  1051.36
eigval :     1076.42  1081.44  1095.14  1105.45  1107.89  1115.70
eigval :     1123.27  1132.47  1143.32  1176.00  1206.14  1216.16
eigval :     1236.71  1241.55  1257.76  1264.28  1274.21  1278.87
eigval :     1284.64  1284.94  1294.23  1294.95  1299.87  1324.21
eigval :     1330.71  1362.29  1367.45  1377.42  1378.92  1380.40
eigval :     1415.93  1415.97  1491.16  1491.57  1495.84  1496.30
eigval :     1497.88  1498.21  1500.22  1501.38  1502.52  1504.68
eigval :     1504.74  1504.96  1507.91  1507.95  2953.43  2955.23
eigval :     2956.48  2957.05  2957.96  2963.61  2965.55  2970.47
eigval :     2972.87  2973.27  2974.42  2974.58  2976.97  2977.54
eigval :     2979.35  2981.16  2984.14  2985.73  2990.81  2996.92
eigval :     3030.58  3030.61  3032.59  3032.81  3038.08  3038.28
 reduced masses (amu)
   1:  9.12   2:  9.56   3: 10.10   4: 10.25   5: 10.01   6: 10.26   7:  7.77   8:  8.23
   9:  5.52  10:  8.83  11:  8.85  12:  6.23  13:  7.79  14:  7.05  15:  7.69  16:  6.80
  17:  8.77  18:  8.13  19:  7.68  20:  2.18  21:  3.36  22:  8.86  23:  8.66  24:  9.62
  25:  9.10  26:  9.00  27:  8.66  28:  1.88  29:  1.68  30:  1.90  31:  2.40  32:  2.46
  33:  3.13  34:  3.24  35:  3.59  36:  6.20  37:  6.09  38:  4.83  39:  4.98  40:  3.56
  41:  3.61  42:  9.78  43: 10.26  44:  8.33  45:  7.89  46:  8.09  47:  7.98  48:  7.90
  49:  7.24  50:  7.78  51:  8.59  52:  6.88  53:  6.13  54:  5.23  55:  3.81  56:  4.16
  57:  3.60  58:  3.30  59:  1.68  60:  2.62  61:  2.07  62:  2.98  63:  2.12  64:  2.51
  65:  2.32  66:  3.72  67:  3.82  68:  4.51  69:  4.74  70:  5.37  71:  5.66  72:  5.58
  73:  3.18  74:  3.19  75:  1.91  76:  1.92  77:  1.95  78:  1.90  79:  1.97  80:  1.86
  81:  1.98  82:  1.97  83:  1.87  84:  1.53  85:  1.53  86:  1.78  87:  1.66  88:  1.65
  89:  1.89  90:  1.89  91:  1.90  92:  1.94  93:  1.94  94:  1.97  95:  1.92  96:  1.80
  97:  1.60  98:  1.62  99:  1.53 100:  1.54 101:  1.63 102:  1.72 103:  1.48 104:  1.57
 105:  1.90 106:  1.58 107:  1.54 108:  1.62 109:  1.96 110:  1.96 111:  1.93 112:  1.93
 113:  1.26 114:  1.26
 IR intensities (km·mol⁻¹)
   1:  0.00   2:  0.00   3:  0.00   4:  0.00   5:  0.00   6:  0.00   7:  0.00   8:  0.00
   9:  0.00  10:  0.01  11:  0.02  12:  0.00  13:  0.04  14:  0.02  15:  0.02  16:  0.00
  17:  0.08  18:  0.01  19:  0.01  20:  0.00  21:  0.00  22:  0.05  23:  0.29  24:  0.03
  25:  0.14  26:  0.01  27:  0.58  28: 15.60  29:  7.49  30:  3.43  31:  0.55  32:  2.42
  33:  1.15  34:  2.00  35:  0.94  36:  3.44  37:  2.93  38:  1.12  39:  0.46  40:  0.05
  41:  0.12  42:  0.27  43:  0.37  44:  2.09  45:  0.85  46:  0.78  47:  0.20  48:  1.42
  49:  2.45  50:  1.81  51:  0.60  52:  0.12  53:  0.28  54:  0.09  55:  0.32  56:  0.18
  57:  0.40  58:  0.26  59:  0.18  60:  0.21  61:  0.26  62:  0.19  63:  0.05  64:  0.07
  65:  0.23  66:  0.10  67:  0.81  68:  0.08  69:  1.90  70:  1.46  71:  0.16  72:  0.03
  73:  0.32  74:  1.43  75:  0.47  76:  0.01  77:  0.01  78:  0.15  79:  0.03  80:  0.16
  81:  0.27  82:  0.24  83:  0.04  84:  2.43  85:  2.18  86:  0.08  87:  1.62  88:  0.77
  89:  0.04  90:  3.26  91:  7.85  92:  7.78  93:  2.27  94:  1.50  95:  1.60  96:  1.12
  97: 11.62  98: 29.96  99:  5.73 100: 15.17 101: 52.77 102: 50.22 103:  6.41 104:  4.31
 105:234.56 106: 54.42 107:171.36 108:194.57 109: 41.82 110: 79.35 111: 59.21 112: 66.68
 113: 51.90 114: 14.18
 Raman intensities (amu)
   1:  0.00   2:  0.00   3:  0.00   4:  0.00   5:  0.00   6:  0.00   7:  0.00   8:  0.00
   9:  0.00  10:  0.00  11:  0.00  12:  0.00  13:  0.00  14:  0.00  15:  0.00  16:  0.00
  17:  0.00  18:  0.00  19:  0.00  20:  0.00  21:  0.00  22:  0.00  23:  0.00  24:  0.00
  25:  0.00  26:  0.00  27:  0.00  28:  0.00  29:  0.00  30:  0.00  31:  0.00  32:  0.00
  33:  0.00  34:  0.00  35:  0.00  36:  0.00  37:  0.00  38:  0.00  39:  0.00  40:  0.00
  41:  0.00  42:  0.00  43:  0.00  44:  0.00  45:  0.00  46:  0.00  47:  0.00  48:  0.00
  49:  0.00  50:  0.00  51:  0.00  52:  0.00  53:  0.00  54:  0.00  55:  0.00  56:  0.00
  57:  0.00  58:  0.00  59:  0.00  60:  0.00  61:  0.00  62:  0.00  63:  0.00  64:  0.00
  65:  0.00  66:  0.00  67:  0.00  68:  0.00  69:  0.00  70:  0.00  71:  0.00  72:  0.00
  73:  0.00  74:  0.00  75:  0.00  76:  0.00  77:  0.00  78:  0.00  79:  0.00  80:  0.00
  81:  0.00  82:  0.00  83:  0.00  84:  0.00  85:  0.00  86:  0.00  87:  0.00  88:  0.00
  89:  0.00  90:  0.00  91:  0.00  92:  0.00  93:  0.00  94:  0.00  95:  0.00  96:  0.00
  97:  0.00  98:  0.00  99:  0.00 100:  0.00 101:  0.00 102:  0.00 103:  0.00 104:  0.00
 105:  0.00 106:  0.00 107:  0.00 108:  0.00 109:  0.00 110:  0.00 111:  0.00 112:  0.00
 113:  0.00 114:  0.00
 output can be read by thermo (or use thermo option).
 writing <g98.out> molden fake output.
 recommended (thermochemical) frequency scaling factor: 1.0
           -------------------------------------------------
          |             Thermodynamic Functions             |
           -------------------------------------------------

Molecule has no symmetry elements
It seems to be the C1 point group
c1  symmetry found (for desy threshold:  0.10E+00) used in thermo

          ...................................................
          :                      SETUP                      :
          :.................................................:
          :  # frequencies                         108      :
          :  # imaginary freq.                       0      :
          :  linear?                             false      :
          :  only rotor calc.                    false      :
          :  symmetry                               c1      :
          :  rotational number                       1      :
          :  scaling factor                  1.0000000      :
          :  rotor cutoff                   50.0000000 cm⁻¹ :
          :  imag. cutoff                  -20.0000000 cm⁻¹ :
          :.................................................:

    mode    ω/cm⁻¹     T·S(HO)/kcal·mol⁻¹    T·S(FR)/kcal·mol⁻¹   T·S(vib)
   ------------------------------------------------------------------------
       1     25.49    -1.83447 (  6.33%)    -1.25607 ( 93.67%)    -1.29265
       2     31.09    -1.71691 ( 13.01%)    -1.19721 ( 86.99%)    -1.26481
       3     35.96    -1.63094 ( 21.10%)    -1.15415 ( 78.90%)    -1.25476
       4     61.41    -1.31524 ( 69.47%)    -0.99561 ( 30.53%)    -1.21766
       5     78.25    -1.17304 ( 85.71%)    -0.92385 ( 14.29%)    -1.13743
       6     84.79    -1.12609 ( 89.21%)    -0.90007 ( 10.79%)    -1.10170
       7    110.43    -0.97239 ( 95.97%)    -0.82181 (  4.03%)    -0.96631
       8    119.15    -0.92845 ( 96.99%)    -0.79927 (  3.01%)    -0.92457
       9    124.00    -0.90550 ( 97.42%)    -0.78746 (  2.58%)    -0.90246
      10    139.65    -0.83739 ( 98.38%)    -0.75225 (  1.62%)    -0.83601
      11    155.08    -0.77788 ( 98.93%)    -0.72122 (  1.07%)    -0.77727
      12    211.49    -0.60547 ( 99.69%)    -0.62931 (  0.31%)    -0.60554
      13    228.11    -0.56464 ( 99.77%)    -0.60691 (  0.23%)    -0.56473
      14    233.08    -0.55309 ( 99.79%)    -0.60051 (  0.21%)    -0.55319
      15    234.31    -0.55029 ( 99.79%)    -0.59896 (  0.21%)    -0.55039
   ------------------------------------------------------------------------

   temp. (K)  partition function   enthalpy   heat capacity  entropy
                                   cal/mol     cal/K/mol   cal/K/mol   J/K/mol
 298.15  VIB  0.126E+08             8604.573     48.770     56.185
         ROT  0.317E+07              888.752      2.981     32.726
         INT  0.400E+14             9493.326     51.751     88.911
         TR   0.215E+28             1481.254      4.968     41.287
         TOT                       10974.5797    56.7194   130.1978   544.7475

       T/K    H(0)-H(T)+PV         H(T)/Eh          T*S/Eh         G(T)/Eh
   ------------------------------------------------------------------------
    298.15    0.174891E-01    0.373819E+00    0.618612E-01    0.311958E+00
   ------------------------------------------------------------------------

         :::::::::::::::::::::::::::::::::::::::::::::::::::::
         ::                  THERMODYNAMIC                  ::
         :::::::::::::::::::::::::::::::::::::::::::::::::::::
         :: total free energy         -38.667429669531 Eh   ::
         ::.................................................::
         :: total energy              -38.979387451506 Eh   ::
         :: zero point energy           0.356329841107 Eh   ::
         :: G(RRHO) w/o ZPVE           -0.044372059133 Eh   ::
         :: G(RRHO) contrib.            0.311957781974 Eh   ::
         :::::::::::::::::::::::::::::::::::::::::::::::::::::
 
 normal mode %tage of torsion character
   1:  0.00   2:  0.00   3:  0.00   4:  0.00   5:  0.00   6:  0.00   7:  0.50   8:  0.52
   9:  0.53  10:  0.45  11:  0.40  12:  0.61  13:  0.54  14:  0.64  15:  0.64  16:  0.69
  17:  0.49  18:  0.49  19:  0.42  20:  0.89  21:  0.81  22:  0.23  23:  0.17  24:  0.08
  25:  0.07  26:  0.06  27:  0.07  28:  0.52  29:  0.54  30:  0.48  31:  0.48  32:  0.49
  33:  0.56  34:  0.53  35:  0.50  36:  0.14  37:  0.10  38:  0.35  39:  0.41  40:  0.34
  41:  0.26  42:  0.06  43:  0.05  44:  0.13  45:  0.12  46:  0.05  47:  0.02  48:  0.09
  49:  0.09  50:  0.05  51:  0.10  52:  0.45  53:  0.55  54:  0.51  55:  0.24  56:  0.32
  57:  0.17  58:  0.31  59:  0.18  60:  0.15  61:  0.13  62:  0.11  63:  0.12  64:  0.13
  65:  0.07  66:  0.07  67:  0.07  68:  0.06  69:  0.07  70:  0.06  71:  0.06  72:  0.06
  73:  0.00  74:  0.00  75:  0.64  76:  0.62  77:  0.65  78:  0.65  79:  0.61  80:  0.64
  81:  0.65  82:  0.62  83:  0.59  84:  0.92  85:  0.93  86:  0.58  87:  0.84  88:  0.85
  89:  0.37  90:  0.33  91:  0.35  92:  0.28  93:  0.34  94:  0.24  95:  0.12  96:  0.05
  97:  0.01  98:  0.01  99:  0.01 100:  0.01 101:  0.01 102:  0.01 103:  0.01 104:  0.01
 105:  0.01 106:  0.02 107:  0.01 108:  0.02 109:  0.06 110:  0.08 111:  0.04 112:  0.03
 113:  0.00 114:  0.00
 recommended # of modes for mode following           4

optimized geometry written to: xtbopt.xyz


           -------------------------------------------------
          | TOTAL ENERGY              -38.979387451506 Eh   |
          | TOTAL ENTHALPY            -38.605568504488 Eh   |
          | TOTAL FREE ENERGY         -38.667429669531 Eh   |
          | GRADIENT NORM               0.000475555635 Eh/α |
          | HOMO-LUMO GAP              12.370885116608 eV   |
           -------------------------------------------------

------------------------------------------------------------------------
 * finished run on 2024/04/23 at 12:10:32.917     
------------------------------------------------------------------------
 total:
 * wall-time:     0 d,  0 h,  0 min,  2.038 sec
 *  cpu-time:     0 d,  0 h,  0 min,  5.577 sec
 * ratio c/w:     2.737 speedup
 SCF:
 * wall-time:     0 d,  0 h,  0 min,  0.044 sec
 *  cpu-time:     0 d,  0 h,  0 min,  0.122 sec
 * ratio c/w:     2.751 speedup
 ANC optimizer:
 * wall-time:     0 d,  0 h,  0 min,  0.158 sec
 *  cpu-time:     0 d,  0 h,  0 min,  0.493 sec
 * ratio c/w:     3.126 speedup
 analytical hessian:
 * wall-time:     0 d,  0 h,  0 min,  1.730 sec
 *  cpu-time:     0 d,  0 h,  0 min,  4.780 sec
 * ratio c/w:     2.762 speedup

