38
 energy: -38.976902110776 gnorm: 0.031150725903 xtb: 6.6.1 (8d0f1dd)
C            6.59184900000000        0.80491900000000        0.18572900000000
C            5.16711500000000        1.06157200000000       -0.28004500000000
C            4.18693600000000       -0.01236600000000        0.19400000000000
C            2.75219000000000        0.23998700000000       -0.26944900000000
C            1.77456800000000       -0.83647200000000        0.20184000000000
C            0.33860900000000       -0.58170200000000       -0.25707700000000
C           -0.63756100000000       -1.65818300000000        0.21868400000000
C           -2.06852300000000       -1.45717100000000       -0.28845600000000
C           -2.74356600000000       -0.20034300000000        0.26191200000000
C           -4.19456200000000       -0.05539000000000       -0.19772700000000
C           -4.87108400000000        1.20590100000000        0.34150000000000
C           -6.31528000000000        1.33922800000000       -0.11577300000000
H            7.28270300000000        1.57918600000000       -0.15666400000000
H            6.96259200000000       -0.15262400000000       -0.18559200000000
H            6.65130200000000        0.77193200000000        1.27545100000000
H            4.82535700000000        2.04468300000000        0.07101700000000
H            5.13310100000000        1.12511900000000       -1.37607600000000
H            4.21421800000000       -0.07847000000000        1.28883000000000
H            4.52021700000000       -0.99658100000000       -0.15824200000000
H            2.41744400000000        1.22280900000000        0.08543800000000
H            2.72480700000000        0.30889300000000       -1.36421100000000
H            2.10763200000000       -1.81885000000000       -0.15596600000000
H            1.80432200000000       -0.90783600000000        1.29640800000000
H            0.30830800000000       -0.51489500000000       -1.35183700000000
H            0.01335400000000        0.40354000000000        0.09793000000000
H           -0.26371000000000       -2.64170100000000       -0.09618200000000
H           -0.63801300000000       -1.69104900000000        1.31533800000000
H           -2.68224000000000       -2.33125500000000       -0.03279100000000
H           -2.06754900000000       -1.42016900000000       -1.38495400000000
H           -2.17756000000000        0.69048200000000       -0.03543900000000
H           -2.70364800000000       -0.21087000000000        1.35829600000000
H           -4.23522900000000       -0.05500300000000       -1.29430000000000
H           -4.76796400000000       -0.93988000000000        0.10731000000000
H           -4.29331600000000        2.08789800000000        0.03269700000000
H           -4.81992500000000        1.20415100000000        1.43896400000000
H           -6.91348600000000        0.48619400000000        0.21140400000000
H           -6.38315800000000        1.37960200000000       -1.20501400000000
H           -6.78945000000000        2.24245100000000        0.27610800000000
38
 energy: -38.978994052669 gnorm: 0.014065090922 xtb: 6.6.1 (8d0f1dd)
C            6.58177249961212        0.79962765364305        0.18697249379321
C            5.15786039658409        1.05994458235801       -0.28108096651175
C            4.18303511493252       -0.01655354610638        0.19548542722464
C            2.75034809150089        0.23972844026236       -0.27010839515549
C            1.77532410590344       -0.83826494353111        0.20258714058279
C            0.34196482053758       -0.57613967786165       -0.25873253592659
C           -0.63639134910459       -1.64825327159043        0.22085166176296
C           -2.06504280358473       -1.44799838065536       -0.29011157433010
C           -2.74318926862946       -0.19530594137489        0.26369562575758
C           -4.19291327578025       -0.05997552134362       -0.19942328386851
C           -4.86378630606631        1.20192281579221        0.34228399333616
C           -6.30791648880323        1.33173631462444       -0.11738100707377
H            7.25849831792174        1.57928496505400       -0.16214164508500
H            6.94688377272103       -0.15524246471935       -0.19074117383092
H            6.63461509540870        0.77232140904301        1.27519555608588
H            4.82508094449041        2.03723537447035        0.08567258726812
H            5.13569154023999        1.10913199077981       -1.37533775379024
H            4.20620321373377       -0.06573447042217        1.28937295412641
H            4.51544159733406       -0.99308493394956       -0.17250031570967
H            2.41902371247911        1.21598246831425        0.10005443686094
H            2.72915986909374        0.29314653480608       -1.36394509025457
H            2.10493223612932       -1.81402051761655       -0.17028302398624
H            1.79908746340693       -0.89343877517752        1.29627007277403
H            0.31579279242917       -0.52704667272181       -1.35259920211290
H            0.02299777075427        0.40217342920701        0.11224212170405
H           -0.27422379450355       -2.62772990095920       -0.11150671373336
H           -0.64279179467730       -1.67091867830703        1.31579898567096
H           -2.66673731145083       -2.32221539133287       -0.01670011222852
H           -2.05624296114511       -1.40263268087820       -1.38432048183516
H           -2.18570990148109        0.69200131399308       -0.05005263425423
H           -2.71254624579423       -0.22149554616586        1.35827338967565
H           -4.22473100000819       -0.04426541843717       -1.29417753752754
H           -4.76251122562310       -0.93880487099713        0.12155635617886
H           -4.29618939679234        2.08126986872897        0.01796566476443
H           -4.82775232134897        1.18913605037360        1.43728311081109
H           -6.90000225338288        0.47979798153442        0.21646215303658
H           -6.36734625728434        1.37606515782808       -1.20477170923759
H           -6.76688939975238        2.23635225333515        0.28095242503784
38
 energy: -38.979340810677 gnorm: 0.002170289720 xtb: 6.6.1 (8d0f1dd)
C            6.57427742244795        0.79589668717595        0.18766932110570
C            5.14913060779708        1.05825397950781       -0.28198966038142
C            4.17862667467264       -0.02042348313947        0.19643711115094
C            2.74750826006165        0.23924470340905       -0.27099122967065
C            1.77504015748690       -0.84013845782383        0.20343894510535
C            0.34409106929662       -0.56965720474250       -0.26004878567168
C           -0.63362106440213       -1.64102430429246        0.22196141323767
C           -2.06148696169848       -1.44121773411129       -0.29099575185480
C           -2.74041793144665       -0.19032203386571        0.26486225267026
C           -4.18980249244927       -0.06318677127688       -0.20011563866016
C           -4.85790695541334        1.19856635922766        0.34319183526951
C           -6.30360953844272        1.32661077875075       -0.11845120689736
H            7.24347254890073        1.57815869595817       -0.16483543688129
H            6.93444182071691       -0.15807515627334       -0.19226656013548
H            6.62193917465696        0.77021086275471        1.27451185537478
H            4.81991577223173        2.03120886804397        0.09154839091586
H            5.13157199737537        1.10068666164166       -1.37395944829049
H            4.19999177952719       -0.06218789398458        1.28850304091475
H            4.51045599112648       -0.99224454584625       -0.17799718052437
H            2.41828729177986        1.21130809740621        0.10567849474480
H            2.72924606348631        0.28577014967355       -1.36302621870100
H            2.10223264558270       -1.81174719546004       -0.17601081052010
H            1.79618035886056       -0.88825069118808        1.29531448057332
H            0.32058268139331       -0.52981489706960       -1.35218875040404
H            0.03148230581947        0.40591925122622        0.11660835615288
H           -0.27794915290647       -2.61815201426650       -0.11695187058969
H           -0.64346426942535       -1.65655878242832        1.31487746065093
H           -2.65600320331685       -2.31541270895319       -0.01060764698592
H           -2.04833142666980       -1.39020059862854       -1.38277148759389
H           -2.19055440169582        0.69681038198818       -0.05458419601756
H           -2.71497019088896       -0.22428743552754        1.35719771738165
H           -4.21793717957067       -0.04138618161648       -1.29262862493087
H           -4.75616721894270       -0.93887250960485        0.12758254666434
H           -4.29496793829185        2.07503852336751        0.01228303186187
H           -4.82807026815120        1.18021477896169        1.43556805511091
H           -6.89061079722720        0.47428740079874        0.21771902353129
H           -6.35707355141028        1.37096030035046       -1.20440593481437
H           -6.75473008087069        2.23175111985715        0.28293410710833
38
 energy: -38.979365672446 gnorm: 0.001036722961 xtb: 6.6.1 (8d0f1dd)
C            6.57153940577537        0.79478108916383        0.18773031126845
C            5.14585339912121        1.05747424104857       -0.28231131705909
C            4.17690055120746       -0.02194306772114        0.19665787042995
C            2.74644808852595        0.23880862118181       -0.27122989664135
C            1.77454790968541       -0.84045830621402        0.20342560843892
C            0.34464816145630       -0.56737642712318       -0.26074068306349
C           -0.63243589313316       -1.63820583965289        0.22254704047654
C           -2.05995563381115       -1.43866499853247       -0.29153194144851
C           -2.73871395435538       -0.18850567866161        0.26553164351450
C           -4.18809038845789       -0.06403210488821       -0.19998521814123
C           -4.85600208106227        1.19748267871621        0.34365687300328
C           -6.30231555034420        1.32478242177898       -0.11874422910479
H            7.24033699979475        1.57689177092407       -0.16482191920155
H            6.93005064982797       -0.15953165696704       -0.19215862461992
H            6.61756723784018        0.76875924140595        1.27436994828227
H            4.81608191867196        2.02953165162558        0.09161148158181
H            5.12780147416634        1.09942911989623       -1.37379374652975
H            4.19770688454859       -0.06377758739849        1.28827987399840
H            4.50820557794377       -0.99337546322613       -0.17793954851954
H            2.41727412920472        1.21030988331981        0.10552415009976
H            2.72804624935185        0.28499342591597       -1.36279746401683
H            2.10067012359580       -1.81167909894726       -0.17644419282632
H            1.79548226238972       -0.88876158905547        1.29480856668831
H            0.32170355381049       -0.52794132758894       -1.35241593709335
H            0.03439012655175        0.40857359729098        0.11560892136404
H           -0.27640353905676       -2.61485809139717       -0.11548960696962
H           -0.64248954589605       -1.65175475961771        1.31505349835513
H           -2.65400540267148       -2.31270943516647       -0.01189824228203
H           -2.04578489243938       -1.38607395865622       -1.38280803422142
H           -2.19097025314047        0.69956092162838       -0.05358424908225
H           -2.71347702418530       -0.22284718613733        1.35740153243428
H           -4.21598109808309       -0.04275989303395       -1.29209281411493
H           -4.75287914568766       -0.94000924432387        0.12814763464158
H           -4.29325242042214        2.07344725782166        0.01268042551060
H           -4.82628666936508        1.17845332604493        1.43554447975683
H           -6.88787481354311        0.47178069544958        0.21738499415181
H           -6.35420209026667        1.36825994857352       -1.20454582231019
H           -6.75333430754833        2.22968282252351        0.28242963324967
38
 energy: -38.979382562116 gnorm: 0.001997177033 xtb: 6.6.1 (8d0f1dd)
C            6.56612532049534        0.79258308263899        0.18778841777162
C            5.14011805921682        1.05562229786227       -0.28265935456795
C            4.17357687438547       -0.02472418450366        0.19667705030123
C            2.74453729222988        0.23766062468414       -0.27174918903109
C            1.77331877449693       -0.84073062789074        0.20275732443228
C            0.34544654919880       -0.56302000766521       -0.26186407905172
C           -0.63033590849409       -1.63253975179968        0.22378847482654
C           -2.05654396722683       -1.43354315430393       -0.29263795920486
C           -2.73495126995514       -0.18497326448270        0.26664190923105
C           -4.18439619791283       -0.06499061406607       -0.19881381317599
C           -4.85323495048840        1.19551364232645        0.34469577849500
C           -6.29988598658991        1.32071414887217       -0.11937416129587
H            7.23588939738392        1.57364088941613       -0.16404921216661
H            6.92189724822514       -0.16270615734451       -0.19174105036454
H            6.60942289096729        0.76571881223435        1.27434837440396
H            4.80832069559928        2.02667878271830        0.09121816284469
H            5.12020361638548        1.09769593425367       -1.37381424562905
H            4.19341607049851       -0.06799110069676        1.28800496275047
H            4.50389715498767       -0.99632692687980       -0.17760959237739
H            2.41526861263563        1.20901811151220        0.10442388116980
H            2.72552700876545        0.28421206034675       -1.36299273970582
H            2.09728627886003       -1.81218250591241       -0.17737689164064
H            1.79408690537154       -0.89064039090661        1.29376729953811
H            0.32302099867166       -0.52346585403603       -1.35323191237536
H            0.03913727932766        0.41462601249936        0.11282134598964
H           -0.27199300006283       -2.60924940948447       -0.11013194219299
H           -0.64089516894314       -1.64179808830389        1.31603342602107
H           -2.65156280202993       -2.30755702206838       -0.01696475351054
H           -2.04001662624477       -1.37748166927028       -1.38343052784437
H           -2.19025559885591        0.70533915648083       -0.05095713039285
H           -2.70898721176616       -0.21932932295901        1.35820583239029
H           -4.21222529960004       -0.04591426405059       -1.29073890214581
H           -4.74598825402857       -0.94258533639085        0.12959418076424
H           -4.29027163430056        2.07135124580964        0.01460666358618
H           -4.82308774511054        1.17593435645809        1.43629536052593
H           -6.88301280319014        0.46610590653228        0.21644346928404
H           -6.34907715706948        1.36223371945963       -1.20523234407292
H           -6.75297544583326        2.22483786891030        0.28031888642022
38
 energy: -38.979387451462 gnorm: 0.000475310467 xtb: 6.6.1 (8d0f1dd)
C            6.56610687473206        0.79223690550168        0.18793089236215
C            5.14076771885502        1.05540082875687       -0.28250336388404
C            4.17373108875471       -0.02465638765098        0.19627409675240
C            2.74476066733851        0.23758538501001       -0.27198632789258
C            1.77324521935246       -0.84043385653619        0.20225275644450
C            0.34527017219131       -0.56315655215006       -0.26173257375385
C           -0.63078898530701       -1.63219014230083        0.22422128600757
C           -2.05625836758151       -1.43313030705046       -0.29294811745154
C           -2.73475227620372       -0.18476707963278        0.26660123533446
C           -4.18421188853152       -0.06444161732294       -0.19809919428513
C           -4.85399648624867        1.19563045864870        0.34496939637562
C           -6.29997090995503        1.31982577471060       -0.11954922815626
H            7.23658482578112        1.57301718405256       -0.16361650669418
H            6.92228929200400       -0.16308384332996       -0.19154877587475
H            6.60977824213252        0.76546539841455        1.27462529982992
H            4.80885597988754        2.02679848699385        0.09133800752349
H            5.12088222335817        1.09789042050819       -1.37396760282799
H            4.19364845049479       -0.06825781677690        1.28789682133275
H            4.50418554540623       -0.99650686418190       -0.17814473816456
H            2.41557350926182        1.20934041922163        0.10418409729115
H            2.72580897207048        0.28440366570370       -1.36354451418770
H            2.09707338785196       -1.81222763486565       -0.17808213904925
H            1.79416642111582       -0.89074946565603        1.29356952837811
H            0.32222925664401       -0.52364394537576       -1.35343394709752
H            0.03852815471729        0.41472007235395        0.11281808230185
H           -0.27202543720769       -2.60957163738182       -0.10843938959100
H           -0.64182237132143       -1.64078307583963        1.31674615181766
H           -2.65209779010980       -2.30742291643819       -0.01861126608142
H           -2.03901946827444       -1.37647834797780       -1.38396773692187
H           -2.18946758298464        0.70546639350732       -0.05111663551199
H           -2.70805941793506       -0.21925364340593        1.35846617079739
H           -4.21234041222698       -0.04556681058335       -1.29030537424037
H           -4.74569092800712       -0.94237646928631        0.13054059783443
H           -4.29124307550113        2.07209602603124        0.01514829496894
H           -4.82415747512399        1.17640666488350        1.43689545644843
H           -6.88322266306170        0.46509803784955        0.21621723165529
H           -6.34922054678107        1.36128555592842       -1.20555518267460
H           -6.75433991958733        2.22376773566716        0.27951821088448
