 Entering Gaussian System
 *********************************************
 Gaussian 98:
 frequency output generated by the xtb code
 *********************************************
                         Standard orientation:
 --------------------------------------------------------------------
  Center     Atomic     Atomic              Coordinates (Angstroms)
  Number     Number      Type              X           Y           Z
 --------------------------------------------------------------------
    1          6             0        5.555060    0.703770   -0.002018
    2          6             0        4.368275   -0.243769    0.124652
    3          6             0        3.037103    0.487813   -0.027582
    4          6             0        1.844084   -0.456967    0.093174
    5          6             0        0.515277    0.272108   -0.087630
    6          6             0       -0.680011   -0.671634    0.018732
    7          6             0       -2.002993    0.058087   -0.201039
    8          6             0       -3.199269   -0.885326   -0.098178
    9          6             0       -4.531200   -0.213298   -0.433921
   10          6             0       -4.940191    0.851707    0.577285
   11          1             0        6.491944    0.162078    0.105291
   12          1             0        5.550138    1.192359   -0.974059
   13          1             0        5.512677    1.472658    0.766448
   14          1             0        4.440999   -1.020369   -0.640272
   15          1             0        4.399214   -0.736671    1.099078
   16          1             0        2.962110    1.264186    0.737621
   17          1             0        3.007680    0.982099   -1.001699
   18          1             0        1.929019   -1.242772   -0.661389
   19          1             0        1.862004   -0.939353    1.073416
   20          1             0        0.502659    0.758670   -1.065994
   21          1             0        0.426417    1.054677    0.669735
   22          1             0       -0.684481   -1.140677    1.005563
   23          1             0       -0.577701   -1.467594   -0.722987
   24          1             0       -2.094021    0.853574    0.540260
   25          1             0       -1.996120    0.523440   -1.189802
   26          1             0       -3.248081   -1.298925    0.911937
   27          1             0       -3.046372   -1.719534   -0.787823
   28          1             0       -4.465750    0.236834   -1.427234
   29          1             0       -5.308515   -0.980477   -0.470236
   30          1             0       -5.922228    1.248817    0.329948
   31          1             0       -4.983732    0.428646    1.578663
   32          1             0       -4.233701    1.677461    0.582179
 --------------------------------------------------------------------
     1 basis functions        1 primitive gaussians
     1 alpha electrons        1 beta electrons
 
 Harmonic frequencies (cm**-1), IR intensities (km*mol⁻¹),
 Raman scattering activities (A**4/amu), Raman depolarization ratios,
 reduced masses (AMU), force constants (mDyne/A) and normal coordinates:
                      1                      2                      3
                        a                      a                      a 
 Frequencies --    31.3283                37.9708                57.7375
 Red. masses --     8.4954                 7.1579                 9.0997
 Frc consts  --     0.0000                 0.0000                 0.0000
 IR Inten    --     0.0011                 0.0030                 0.0297
 Raman Activ --     0.0000                 0.0000                 0.0000
 Depolar     --     0.0000                 0.0000                 0.0000
 Atom AN      X      Y      Z        X      Y      Z        X      Y      Z
   1   6    -0.01   0.04   0.28    -0.06   0.17   0.31     0.14  -0.34   0.21
   2   6    -0.02   0.05   0.30     0.00   0.03  -0.19    -0.03  -0.16  -0.08
   3   6    -0.00  -0.02  -0.17    -0.04   0.00   0.06     0.09   0.08  -0.05
   4   6    -0.01  -0.01  -0.11     0.01  -0.10  -0.27    -0.03   0.21  -0.15
   5   6     0.00  -0.06  -0.41    -0.02  -0.10  -0.06     0.01   0.30  -0.13
   6   6    -0.00  -0.02  -0.23    -0.00  -0.13  -0.10     0.03   0.29   0.00
   7   6    -0.00  -0.03  -0.26    -0.01  -0.11   0.02    -0.04   0.16  -0.02
   8   6    -0.01   0.01  -0.01    -0.03  -0.05   0.25     0.09   0.01   0.17
   9   6    -0.06   0.04   0.22    -0.02  -0.08   0.15    -0.03  -0.27   0.08
  10   6     0.12   0.01   0.33     0.16   0.31  -0.19    -0.22  -0.21  -0.05
  11   1    -0.01   0.03   0.18    -0.01   0.06   0.03     0.01  -0.15   0.05
  12   1     0.05  -0.07   0.04    -0.01   0.18   0.16     0.09  -0.04   0.09
  13   1    -0.06   0.07   0.02    -0.04  -0.06   0.19     0.07  -0.15   0.11
  14   1     0.04  -0.05   0.15     0.03   0.11  -0.16    -0.03  -0.01  -0.07
  15   1    -0.06   0.09   0.13    -0.00  -0.12  -0.12    -0.06  -0.10  -0.05
  16   1    -0.05   0.06  -0.12    -0.02  -0.08   0.10     0.05   0.00   0.01
  17   1     0.05  -0.09  -0.09    -0.02   0.10   0.07     0.05   0.05   0.00
  18   1     0.02  -0.05   0.02     0.02   0.04  -0.15    -0.02   0.07  -0.06
  19   1    -0.03   0.06   0.00     0.00  -0.12  -0.12    -0.03   0.04  -0.05
  20   1     0.02  -0.09  -0.15    -0.03   0.02   0.01    -0.01   0.07  -0.04
  21   1    -0.01   0.04  -0.18     0.01  -0.06   0.02     0.02   0.10  -0.05
  22   1     0.01   0.04  -0.05     0.01  -0.06  -0.04     0.02   0.11   0.01
  23   1    -0.01  -0.04  -0.03    -0.01  -0.02  -0.05     0.01   0.06   0.02
  24   1     0.02   0.03  -0.11     0.03  -0.01  -0.01    -0.03   0.07  -0.04
  25   1    -0.02  -0.06  -0.10    -0.04  -0.05  -0.01    -0.04   0.01  -0.03
  26   1     0.05   0.01   0.00    -0.00   0.05   0.10     0.05   0.05   0.07
  27   1    -0.05  -0.01  -0.00    -0.02  -0.06   0.12     0.06  -0.03   0.09
  28   1    -0.06   0.02   0.07    -0.03  -0.13  -0.00    -0.03  -0.11   0.01
  29   1    -0.02   0.02   0.09    -0.02  -0.01   0.15     0.03  -0.12   0.05
  30   1     0.03   0.01   0.14     0.04   0.07  -0.06    -0.08  -0.12  -0.03
  31   1     0.08  -0.01   0.09     0.08   0.20  -0.01    -0.05  -0.03  -0.00
  32   1     0.04  -0.00   0.07     0.05   0.08  -0.17    -0.10  -0.03  -0.04
                      4                      5                      6
                        a                      a                      a 
 Frequencies --    81.7384                85.4667               117.6298
 Red. masses --     8.1872                 5.7012                 7.2673
 Frc consts  --     0.0000                 0.0000                 0.0000
 IR Inten    --     0.0018                 0.0022                 0.0143
 Raman Activ --     0.0000                 0.0000                 0.0000
 Depolar     --     0.0000                 0.0000                 0.0000
 Atom AN      X      Y      Z        X      Y      Z        X      Y      Z
   1   6    -0.01   0.13   0.23     0.02  -0.12  -0.11     0.02   0.06  -0.21
   2   6     0.06   0.02   0.01    -0.05   0.03   0.29     0.09   0.03   0.20
   3   6     0.03  -0.11  -0.39    -0.00   0.05  -0.05     0.04  -0.04   0.32
   4   6     0.05  -0.12  -0.25    -0.03   0.06  -0.15     0.07  -0.14  -0.17
   5   6     0.04  -0.10  -0.07    -0.04   0.11   0.12     0.08  -0.08  -0.09
   6   6     0.01  -0.03   0.18     0.01  -0.01  -0.32     0.03  -0.03  -0.21
   7   6     0.02   0.07   0.40    -0.06   0.04   0.28     0.05   0.05  -0.13
   8   6    -0.02   0.07   0.11     0.02  -0.08   0.02    -0.00   0.15   0.28
   9   6     0.07   0.11  -0.14    -0.02  -0.14   0.06     0.01   0.05   0.03
  10   6    -0.23  -0.06  -0.08     0.12   0.08  -0.12    -0.35  -0.06  -0.00
  11   1     0.01   0.07   0.16    -0.01  -0.04   0.07     0.02   0.04  -0.06
  12   1     0.06   0.01   0.05     0.04  -0.18  -0.11    -0.04  -0.06  -0.10
  13   1    -0.09   0.06   0.04     0.00   0.08  -0.15     0.03   0.08  -0.12
  14   1     0.09  -0.02   0.03    -0.03  -0.09   0.18    -0.01  -0.03   0.09
  15   1    -0.04   0.04   0.02    -0.03   0.13   0.14     0.09   0.05   0.08
  16   1    -0.03   0.03  -0.18    -0.04   0.04  -0.04    -0.03  -0.09   0.17
  17   1     0.04  -0.11  -0.15     0.05  -0.02  -0.03     0.03   0.09   0.14
  18   1    -0.01  -0.04  -0.07    -0.03   0.06  -0.09     0.05   0.04  -0.13
  19   1     0.05  -0.03  -0.07     0.01  -0.04  -0.07    -0.02  -0.14  -0.10
  20   1    -0.03  -0.04  -0.03    -0.01   0.15   0.10     0.03   0.02  -0.01
  21   1     0.06  -0.02  -0.03    -0.03  -0.07   0.13     0.03  -0.05   0.00
  22   1     0.05  -0.01   0.05     0.04  -0.17  -0.17     0.00  -0.04  -0.07
  23   1    -0.05  -0.01   0.05    -0.01   0.13  -0.23    -0.01   0.01  -0.08
  24   1     0.01  -0.04   0.18     0.01  -0.10   0.21     0.07   0.06  -0.08
  25   1     0.01   0.10   0.15    -0.07   0.16   0.15    -0.02  -0.05  -0.06
  26   1    -0.07  -0.00   0.02    -0.00  -0.08  -0.02     0.00   0.15   0.12
  27   1     0.03   0.04   0.02     0.04   0.02  -0.04    -0.01  -0.03   0.17
  28   1     0.10   0.08  -0.01    -0.04  -0.10  -0.01     0.06   0.03   0.02
  29   1     0.02   0.03  -0.14    -0.01  -0.04   0.09     0.02  -0.00  -0.06
  30   1    -0.03   0.02  -0.11     0.01  -0.03   0.01    -0.04   0.05  -0.13
  31   1    -0.19  -0.08  -0.05     0.12   0.10   0.00    -0.28  -0.07  -0.03
  32   1    -0.05  -0.04   0.10     0.01   0.05  -0.16    -0.06  -0.05   0.15
                      7                      8                      9
                        a                      a                      a 
 Frequencies --   136.5102               148.4873               156.2446
 Red. masses --     6.7659                 7.3850                 6.9924
 Frc consts  --     0.0000                 0.0000                 0.0000
 IR Inten    --     0.0029                 0.0025                 0.0038
 Raman Activ --     0.0000                 0.0000                 0.0000
 Depolar     --     0.0000                 0.0000                 0.0000
 Atom AN      X      Y      Z        X      Y      Z        X      Y      Z
   1   6     0.01  -0.01  -0.04    -0.01   0.11   0.10    -0.13   0.23  -0.06
   2   6     0.00  -0.01  -0.07     0.08  -0.05  -0.15     0.14  -0.09   0.04
   3   6     0.00   0.04   0.20     0.04  -0.14  -0.25     0.02  -0.30   0.09
   4   6    -0.00   0.06   0.28     0.02  -0.04   0.36     0.00  -0.28  -0.01
   5   6     0.02  -0.08  -0.45     0.05   0.00   0.26     0.12  -0.04  -0.05
   6   6     0.02  -0.05  -0.23     0.01  -0.02  -0.37    -0.06   0.22   0.07
   7   6    -0.02   0.04   0.34     0.02   0.08  -0.16    -0.02   0.31   0.02
   8   6    -0.01  -0.01   0.05     0.02   0.10   0.13     0.10   0.14  -0.14
   9   6     0.02   0.00  -0.02    -0.04  -0.04   0.08    -0.09  -0.15   0.06
  10   6    -0.04   0.01  -0.05    -0.18  -0.01  -0.01    -0.06  -0.06  -0.02
  11   1     0.00  -0.03  -0.13     0.01   0.06   0.02     0.01   0.15  -0.03
  12   1    -0.06   0.09   0.04    -0.00   0.09   0.06    -0.10   0.06  -0.02
  13   1     0.06  -0.08   0.06    -0.04  -0.02   0.07    -0.09   0.07  -0.02
  14   1    -0.03   0.04  -0.07     0.07   0.01  -0.06     0.08  -0.02   0.01
  15   1     0.03  -0.06  -0.05     0.00  -0.04  -0.05     0.09  -0.02   0.01
  16   1     0.04  -0.00   0.08     0.05   0.06  -0.16    -0.01  -0.10   0.04
  17   1    -0.03   0.03   0.07    -0.03  -0.16  -0.13     0.00  -0.06   0.04
  18   1     0.07  -0.08   0.19    -0.04  -0.10   0.19    -0.01  -0.07  -0.01
  19   1    -0.08   0.15   0.15     0.04   0.11   0.16    -0.03  -0.09  -0.01
  20   1     0.07  -0.17  -0.21     0.09   0.09   0.12     0.06  -0.04  -0.03
  21   1    -0.05   0.09  -0.26    -0.04  -0.07   0.14     0.09   0.02  -0.04
  22   1     0.09  -0.06  -0.09    -0.03  -0.15  -0.17    -0.03   0.10   0.04
  23   1    -0.07   0.02  -0.11     0.03   0.10  -0.22    -0.06   0.03   0.05
  24   1     0.02  -0.09   0.21     0.06   0.03  -0.05    -0.03   0.07   0.03
  25   1    -0.05   0.15   0.16    -0.04   0.01  -0.05     0.01   0.11   0.02
  26   1    -0.03  -0.06  -0.01     0.03   0.09   0.06     0.07  -0.01  -0.06
  27   1     0.03   0.03  -0.02    -0.00  -0.01   0.09     0.07   0.08  -0.08
  28   1     0.02   0.00  -0.00    -0.02  -0.03   0.01    -0.13  -0.09  -0.01
  29   1     0.00   0.00  -0.02     0.01  -0.03   0.03     0.02  -0.10   0.11
  30   1    -0.00   0.01  -0.03    -0.04   0.00  -0.05    -0.13  -0.21   0.14
  31   1    -0.03   0.01  -0.01    -0.10   0.00  -0.00     0.24   0.07   0.04
  32   1    -0.01   0.00  -0.00    -0.04  -0.01   0.03    -0.16   0.10  -0.22
                     10                     11                     12
                        a                      a                      a 
 Frequencies --   216.7516               233.1774               251.5899
 Red. masses --     7.8196                 2.1715                 5.8609
 Frc consts  --     0.0000                 0.0000                 0.0000
 IR Inten    --     0.0371                 0.0015                 0.0160
 Raman Activ --     0.0000                 0.0000                 0.0000
 Depolar     --     0.0000                 0.0000                 0.0000
 Atom AN      X      Y      Z        X      Y      Z        X      Y      Z
   1   6     0.37  -0.06   0.02     0.00   0.01   0.04     0.19   0.08  -0.01
   2   6     0.17   0.15  -0.02     0.01  -0.04  -0.27     0.25  -0.02   0.01
   3   6     0.15   0.16  -0.02    -0.00   0.02   0.14     0.17  -0.10   0.02
   4   6     0.18   0.05  -0.00    -0.00   0.02   0.10     0.05  -0.01  -0.00
   5   6     0.01  -0.18   0.04     0.00  -0.01  -0.03     0.03   0.05   0.00
   6   6    -0.04  -0.20   0.03     0.00  -0.00  -0.02    -0.08   0.13   0.05
   7   6    -0.05  -0.13  -0.01    -0.00  -0.00   0.01    -0.19   0.01   0.01
   8   6    -0.22   0.04  -0.09    -0.00  -0.00   0.00    -0.16  -0.12  -0.21
   9   6    -0.25   0.10   0.02    -0.00   0.00   0.00    -0.29  -0.16   0.15
  10   6    -0.33   0.08   0.02    -0.01   0.00  -0.00     0.00   0.11  -0.02
  11   1     0.07  -0.09   0.01    -0.01   0.09   0.55     0.07   0.04  -0.01
  12   1     0.15  -0.01   0.01     0.33  -0.33  -0.16     0.04   0.03  -0.00
  13   1     0.16  -0.02   0.01    -0.32   0.27  -0.27     0.05   0.02  -0.00
  14   1     0.03   0.04  -0.00    -0.00   0.06  -0.15     0.09  -0.00   0.00
  15   1     0.03   0.04  -0.00     0.01  -0.11  -0.12     0.09  -0.00   0.00
  16   1     0.04   0.05  -0.00     0.04  -0.06   0.11     0.05  -0.03   0.01
  17   1     0.04   0.05  -0.01    -0.04   0.09   0.08     0.05  -0.02   0.01
  18   1     0.08   0.02  -0.00     0.01  -0.00   0.04     0.00  -0.00  -0.00
  19   1     0.08   0.01  -0.00    -0.02   0.02   0.03     0.01  -0.01  -0.00
  20   1    -0.02  -0.05   0.01     0.02  -0.02  -0.02     0.01   0.01  -0.00
  21   1    -0.02  -0.05   0.01    -0.01   0.02  -0.03     0.03   0.02  -0.01
  22   1    -0.02  -0.05   0.01     0.00  -0.00  -0.01    -0.03   0.06   0.03
  23   1    -0.01  -0.06   0.01    -0.00  -0.00  -0.01    -0.02   0.02   0.04
  24   1    -0.01  -0.04  -0.00     0.00  -0.00   0.01    -0.09  -0.03   0.03
  25   1     0.01  -0.03   0.00    -0.00   0.01   0.00    -0.05   0.04   0.02
  26   1    -0.07  -0.02  -0.04    -0.00  -0.00  -0.00    -0.00  -0.13  -0.10
  27   1    -0.10   0.02  -0.05    -0.00   0.00  -0.00    -0.05   0.04  -0.15
  28   1    -0.10   0.03   0.00    -0.00  -0.00   0.00    -0.17  -0.11   0.01
  29   1    -0.06   0.01   0.02    -0.00  -0.00   0.00    -0.09  -0.05   0.16
  30   1    -0.21  -0.18   0.14    -0.00   0.00  -0.00     0.16   0.31  -0.20
  31   1     0.15   0.09   0.04    -0.00   0.00   0.00    -0.32   0.02  -0.02
  32   1    -0.25   0.16  -0.17    -0.00   0.00  -0.00     0.22  -0.16   0.16
                     13                     14                     15
                        a                      a                      a 
 Frequencies --   299.1799               342.7558               431.2383
 Red. masses --     8.2845                 8.5194                 8.3857
 Frc consts  --     0.0000                 0.0000                 0.0000
 IR Inten    --     0.1683                 0.1396                 0.4811
 Raman Activ --     0.0000                 0.0000                 0.0000
 Depolar     --     0.0000                 0.0000                 0.0000
 Atom AN      X      Y      Z        X      Y      Z        X      Y      Z
   1   6    -0.03   0.14  -0.02     0.31  -0.00   0.01    -0.24   0.00  -0.01
   2   6     0.25  -0.22   0.04     0.10   0.20  -0.03     0.03  -0.26   0.04
   3   6     0.22  -0.22   0.04    -0.06  -0.01   0.00     0.26   0.14  -0.01
   4   6    -0.08   0.14  -0.02    -0.03  -0.15   0.03     0.16   0.29  -0.05
   5   6    -0.04   0.31  -0.05    -0.08  -0.14   0.02    -0.08  -0.12   0.01
   6   6     0.04   0.13  -0.05    -0.30   0.11  -0.04    -0.03  -0.23   0.05
   7   6    -0.19  -0.26   0.03    -0.25   0.22   0.00     0.09   0.10   0.04
   8   6    -0.23  -0.23   0.15    -0.11   0.06   0.20    -0.10   0.31   0.03
   9   6     0.02   0.15  -0.15    -0.01  -0.06  -0.24    -0.26  -0.09  -0.17
  10   6     0.04   0.00   0.03     0.34  -0.20   0.00     0.13  -0.14  -0.01
  11   1     0.05   0.14  -0.02     0.04  -0.08   0.02     0.00   0.12  -0.02
  12   1    -0.08   0.04  -0.01     0.15  -0.00   0.00    -0.15   0.00  -0.00
  13   1    -0.08   0.04  -0.01     0.15   0.00   0.00    -0.15   0.00  -0.01
  14   1     0.11  -0.06   0.01     0.03   0.05  -0.01    -0.00  -0.07   0.01
  15   1     0.11  -0.06   0.01     0.03   0.05  -0.01    -0.00  -0.07   0.01
  16   1     0.10  -0.06   0.01    -0.05  -0.00  -0.00     0.14   0.04  -0.00
  17   1     0.10  -0.06   0.01    -0.05  -0.01   0.00     0.14   0.04  -0.00
  18   1    -0.07   0.03  -0.00     0.00  -0.04   0.01     0.07   0.08  -0.01
  19   1    -0.07   0.04  -0.01     0.00  -0.04   0.01     0.07   0.08  -0.01
  20   1    -0.01   0.09  -0.01     0.00  -0.04   0.01    -0.07  -0.04   0.00
  21   1    -0.02   0.08  -0.01    -0.00  -0.04   0.01    -0.07  -0.03  -0.00
  22   1     0.06   0.03  -0.02    -0.12   0.02  -0.02    -0.02  -0.07   0.01
  23   1     0.06   0.05  -0.02    -0.13   0.03  -0.02    -0.03  -0.06   0.01
  24   1    -0.08  -0.06  -0.02    -0.05   0.08  -0.01     0.10   0.03   0.02
  25   1    -0.10  -0.10  -0.00    -0.10   0.03  -0.01     0.07   0.03   0.01
  26   1    -0.13  -0.00   0.06    -0.08   0.15   0.11    -0.07   0.18   0.04
  27   1    -0.09  -0.11   0.09     0.04  -0.07   0.18     0.02   0.02   0.10
  28   1     0.13   0.11  -0.00     0.06   0.01  -0.05    -0.16  -0.06  -0.07
  29   1    -0.05   0.11  -0.17    -0.03   0.01  -0.11    -0.03  -0.07   0.05
  30   1    -0.05  -0.08   0.12     0.10   0.02   0.12     0.06   0.07   0.10
  31   1     0.15  -0.02   0.01     0.16  -0.13  -0.02     0.08  -0.09  -0.02
  32   1    -0.06   0.06  -0.05     0.14  -0.10   0.00     0.12  -0.11  -0.01
                     16                     17                     18
                        a                      a                      a 
 Frequencies --   459.0204               504.8348               768.2555
 Red. masses --     9.3786                 8.5909                 1.6428
 Frc consts  --     0.0000                 0.0000                 0.0000
 IR Inten    --     0.1724                 0.4321                16.9026
 Raman Activ --     0.0000                 0.0000                 0.0000
 Depolar     --     0.0000                 0.0000                 0.0000
 Atom AN      X      Y      Z        X      Y      Z        X      Y      Z
   1   6     0.21   0.09  -0.01     0.16   0.03  -0.00    -0.00  -0.00  -0.00
   2   6     0.23  -0.05   0.01     0.00   0.14  -0.02     0.00  -0.00  -0.03
   3   6     0.05  -0.16   0.03    -0.21  -0.20   0.03     0.00  -0.01  -0.06
   4   6    -0.34   0.20  -0.05    -0.26  -0.10   0.01     0.00  -0.02  -0.09
   5   6    -0.47   0.01  -0.02     0.00   0.27  -0.05     0.00  -0.02  -0.11
   6   6    -0.20  -0.27   0.04     0.33  -0.09   0.04    -0.00  -0.01  -0.11
   7   6     0.10   0.08  -0.03     0.28  -0.16   0.08    -0.00  -0.03  -0.10
   8   6     0.23   0.09  -0.04    -0.10   0.24  -0.02     0.02  -0.03  -0.06
   9   6     0.22  -0.01   0.11    -0.28  -0.03  -0.13     0.04   0.02  -0.01
  10   6    -0.03   0.02  -0.01     0.02  -0.07   0.00    -0.00   0.02   0.02
  11   1     0.07   0.03  -0.00     0.00  -0.07   0.01    -0.00   0.00   0.01
  12   1     0.05   0.02  -0.00     0.10   0.01  -0.00     0.02   0.03   0.01
  13   1     0.05   0.02  -0.00     0.10   0.01   0.00    -0.02  -0.02   0.02
  14   1     0.10  -0.01   0.00     0.02   0.04  -0.00     0.03  -0.08   0.07
  15   1     0.10  -0.01   0.00     0.02   0.04  -0.01    -0.03   0.10   0.04
  16   1     0.04  -0.04   0.01    -0.09  -0.06   0.00    -0.01  -0.15   0.13
  17   1     0.04  -0.04   0.01    -0.09  -0.06   0.01     0.01   0.19   0.08
  18   1    -0.13   0.05  -0.01    -0.13  -0.03  -0.00     0.03  -0.21   0.19
  19   1    -0.13   0.05  -0.02    -0.14  -0.03   0.00    -0.04   0.26   0.11
  20   1    -0.20  -0.01  -0.01    -0.00   0.07  -0.02    -0.02   0.31   0.13
  21   1    -0.20  -0.00  -0.01     0.00   0.07  -0.01     0.01  -0.25   0.23
  22   1    -0.08  -0.07   0.01     0.17  -0.02   0.01    -0.03   0.31   0.12
  23   1    -0.07  -0.07   0.01     0.16  -0.01   0.00    -0.00  -0.24   0.23
  24   1     0.06   0.02  -0.00     0.14  -0.04   0.03     0.01  -0.21   0.19
  25   1     0.07   0.02  -0.01     0.13  -0.03   0.03    -0.05   0.25   0.10
  26   1     0.11  -0.02  -0.03    -0.09   0.14   0.02     0.02   0.15   0.05
  27   1     0.07   0.06  -0.05    -0.03   0.01   0.07    -0.04  -0.12   0.11
  28   1     0.04  -0.01   0.03    -0.19  -0.05  -0.06    -0.04  -0.03  -0.02
  29   1     0.08  -0.03   0.04    -0.03  -0.06   0.07     0.01   0.00   0.06
  30   1    -0.01  -0.05  -0.07     0.02   0.07   0.10    -0.01  -0.03  -0.01
  31   1    -0.05   0.03   0.01     0.05  -0.06  -0.02    -0.02  -0.02  -0.00
  32   1    -0.05   0.04   0.01     0.08  -0.08  -0.01    -0.03   0.03   0.04
                     19                     20                     21
                        a                      a                      a 
 Frequencies --   770.7687               784.3746               806.5279
 Red. masses --     1.8697                 2.3058                 2.6113
 Frc consts  --     0.0000                 0.0000                 0.0000
 IR Inten    --     0.9002                 4.0230                 4.2294
 Raman Activ --     0.0000                 0.0000                 0.0000
 Depolar     --     0.0000                 0.0000                 0.0000
 Atom AN      X      Y      Z        X      Y      Z        X      Y      Z
   1   6    -0.00  -0.00  -0.01     0.00  -0.00  -0.02     0.00  -0.00  -0.03
   2   6     0.00  -0.01  -0.10     0.00  -0.03  -0.14     0.00  -0.02  -0.12
   3   6     0.00  -0.02  -0.13     0.01  -0.01  -0.09    -0.01  -0.01   0.00
   4   6     0.00  -0.02  -0.10     0.00   0.00   0.07    -0.02   0.03   0.12
   5   6     0.01   0.00  -0.02    -0.01   0.02   0.15     0.00   0.01   0.05
   6   6     0.01   0.00   0.08    -0.03   0.04   0.06     0.05  -0.06  -0.09
   7   6     0.01   0.05   0.12    -0.03  -0.06  -0.08     0.08   0.08  -0.11
   8   6    -0.03   0.04   0.09     0.04  -0.05  -0.13    -0.01  -0.01   0.06
   9   6    -0.06  -0.04   0.01     0.11   0.07  -0.04    -0.18  -0.15   0.09
  10   6     0.00  -0.03  -0.03     0.01   0.05   0.03    -0.06  -0.04   0.03
  11   1    -0.00   0.00   0.03     0.00   0.01   0.05    -0.00   0.01   0.05
  12   1     0.06   0.08   0.04     0.10   0.11   0.05     0.10   0.10   0.04
  13   1    -0.06  -0.06   0.06    -0.10  -0.09   0.08    -0.09  -0.08   0.07
  14   1     0.05  -0.20   0.18     0.03  -0.23   0.20    -0.01  -0.16   0.12
  15   1    -0.06   0.24   0.10    -0.04   0.28   0.11     0.01   0.19   0.07
  16   1     0.02  -0.26   0.23     0.09  -0.13   0.12     0.09   0.01  -0.00
  17   1    -0.03   0.32   0.13    -0.09   0.16   0.07    -0.09  -0.01  -0.00
  18   1    -0.03  -0.19   0.17    -0.09   0.09  -0.08    -0.03   0.15  -0.12
  19   1     0.02   0.24   0.10     0.10  -0.11  -0.04     0.02  -0.18  -0.06
  20   1    -0.07   0.04   0.02     0.03  -0.27  -0.10     0.08  -0.06  -0.02
  21   1     0.07  -0.03   0.03    -0.01   0.22  -0.19    -0.09   0.05  -0.05
  22   1     0.07  -0.16  -0.06    -0.08  -0.13  -0.05    -0.06   0.15   0.05
  23   1    -0.05   0.12  -0.12     0.07   0.11  -0.09     0.07  -0.14   0.12
  24   1     0.03   0.22  -0.20    -0.11  -0.14   0.10     0.11  -0.09   0.11
  25   1     0.03  -0.27  -0.10     0.03   0.14   0.06    -0.02   0.18   0.04
  26   1    -0.01  -0.20  -0.06    -0.02   0.22   0.06     0.11  -0.04   0.00
  27   1     0.05   0.16  -0.15    -0.04  -0.18   0.16    -0.00   0.03  -0.02
  28   1     0.07   0.04   0.03    -0.14  -0.10  -0.07     0.22   0.23   0.16
  29   1    -0.02  -0.00  -0.10     0.03   0.00   0.20    -0.07   0.01  -0.39
  30   1     0.01   0.04   0.02    -0.02  -0.07  -0.02     0.04   0.12   0.00
  31   1     0.03   0.03   0.01    -0.04  -0.08  -0.03     0.03   0.23   0.11
  32   1     0.05  -0.05  -0.07    -0.08   0.09   0.14     0.13  -0.13  -0.26
                     22                     23                     24
                        a                      a                      a 
 Frequencies --   834.0804               887.0613               928.4828
 Red. masses --     2.8161                 3.2667                 7.4941
 Frc consts  --     0.0000                 0.0000                 0.0000
 IR Inten    --     1.6068                 1.0845                 0.9761
 Raman Activ --     0.0000                 0.0000                 0.0000
 Depolar     --     0.0000                 0.0000                 0.0000
 Atom AN      X      Y      Z        X      Y      Z        X      Y      Z
   1   6     0.00   0.01   0.06     0.01  -0.02  -0.10    -0.07   0.00  -0.01
   2   6    -0.00   0.02   0.14     0.00  -0.02  -0.08    -0.02   0.06  -0.01
   3   6     0.00  -0.02  -0.10    -0.01   0.04   0.20     0.05  -0.05   0.03
   4   6    -0.00  -0.02  -0.15    -0.00  -0.00  -0.05     0.06  -0.02  -0.01
   5   6    -0.01   0.01   0.10    -0.00  -0.05  -0.17     0.04   0.09  -0.01
   6   6     0.01   0.02   0.14    -0.01   0.04   0.16    -0.05  -0.04   0.02
   7   6     0.05   0.04  -0.11     0.02   0.04   0.07    -0.15  -0.15  -0.00
   8   6     0.05  -0.09  -0.14     0.08  -0.11  -0.19    -0.28   0.36  -0.09
   9   6    -0.09  -0.10   0.04    -0.04  -0.06  -0.03     0.23   0.05   0.26
  10   6    -0.05   0.02   0.09    -0.03   0.05   0.11     0.22  -0.33  -0.09
  11   1     0.00  -0.01  -0.08     0.00   0.02   0.10    -0.06  -0.07   0.02
  12   1    -0.14  -0.14  -0.06     0.17   0.16   0.06     0.05   0.01   0.00
  13   1     0.15   0.12  -0.09    -0.18  -0.14   0.10     0.01  -0.02   0.01
  14   1     0.07   0.17  -0.12    -0.16  -0.09   0.05    -0.01   0.01  -0.00
  15   1    -0.06  -0.20  -0.07     0.16   0.10   0.03     0.03   0.02  -0.00
  16   1    -0.10  -0.12   0.08    -0.00   0.19  -0.13     0.00   0.00  -0.01
  17   1     0.10   0.14   0.04     0.01  -0.22  -0.07     0.03  -0.03  -0.00
  18   1    -0.07  -0.16   0.12     0.18  -0.03   0.04     0.02  -0.02   0.01
  19   1     0.06   0.20   0.06    -0.18   0.04   0.01    -0.00   0.01   0.01
  20   1    -0.10  -0.14  -0.04    -0.12   0.17   0.05     0.00   0.02  -0.00
  21   1     0.10   0.11  -0.08     0.10  -0.15   0.12     0.05   0.03  -0.00
  22   1    -0.06  -0.20  -0.06     0.13  -0.16  -0.04     0.01  -0.03  -0.00
  23   1     0.07   0.16  -0.12    -0.13   0.14  -0.11     0.03   0.01  -0.01
  24   1    -0.09  -0.10   0.08    -0.17   0.05  -0.06    -0.02  -0.05   0.02
  25   1     0.12   0.16   0.04     0.18  -0.06  -0.01    -0.00  -0.01   0.01
  26   1     0.08   0.20   0.06    -0.01   0.21   0.05    -0.12   0.10  -0.03
  27   1    -0.01  -0.18   0.15     0.05  -0.19   0.15    -0.18   0.09  -0.04
  28   1     0.07   0.17   0.10    -0.05   0.10   0.04    -0.05   0.14   0.12
  29   1    -0.04   0.01  -0.21    -0.02  -0.01  -0.07     0.12  -0.05   0.04
  30   1     0.02   0.06  -0.03     0.01   0.02  -0.05     0.08  -0.24  -0.35
  31   1    -0.02   0.19   0.10    -0.05   0.14   0.08    -0.11   0.18   0.08
  32   1     0.05  -0.05  -0.15     0.00   0.01  -0.05    -0.03  -0.01  -0.15
                     25                     26                     27
                        a                      a                      a 
 Frequencies --   941.1556               947.7579               998.5227
 Red. masses --     5.9664                 3.1297                 3.5414
 Frc consts  --     0.0000                 0.0000                 0.0000
 IR Inten    --     4.2711                 0.5748                 0.0850
 Raman Activ --     0.0000                 0.0000                 0.0000
 Depolar     --     0.0000                 0.0000                 0.0000
 Atom AN      X      Y      Z        X      Y      Z        X      Y      Z
   1   6     0.36  -0.07   0.03     0.04  -0.03  -0.12    -0.02  -0.02  -0.10
   2   6     0.10  -0.26   0.04     0.01  -0.02   0.04     0.01   0.03   0.10
   3   6    -0.25   0.33  -0.07    -0.03   0.06   0.13     0.03   0.01  -0.02
   4   6    -0.13  -0.13   0.04    -0.00  -0.05  -0.20     0.02  -0.05  -0.05
   5   6    -0.02  -0.04  -0.00     0.00   0.03   0.11    -0.05   0.02   0.12
   6   6     0.03   0.08  -0.02     0.01  -0.00   0.06    -0.06   0.05  -0.17
   7   6     0.01  -0.06   0.03     0.01  -0.02  -0.18    -0.04  -0.13   0.14
   8   6    -0.04   0.06  -0.03    -0.06   0.06   0.17     0.17   0.02  -0.05
   9   6     0.03   0.01   0.03    -0.01   0.04   0.07     0.06  -0.02  -0.18
  10   6     0.03  -0.06  -0.00    -0.01  -0.02  -0.14    -0.08   0.06   0.18
  11   1     0.37   0.44  -0.07     0.04   0.07   0.09    -0.01  -0.00   0.06
  12   1    -0.24  -0.01   0.01     0.14   0.15   0.05     0.11   0.10   0.03
  13   1    -0.21   0.01  -0.03    -0.19  -0.13   0.09    -0.11  -0.10   0.06
  14   1    -0.09  -0.08   0.01    -0.24  -0.00  -0.02    -0.19   0.06  -0.05
  15   1    -0.14  -0.08   0.01     0.21  -0.02  -0.00     0.19  -0.06  -0.02
  16   1    -0.11   0.07  -0.01    -0.20   0.10  -0.07    -0.23  -0.03   0.01
  17   1    -0.14   0.09  -0.01     0.17  -0.10  -0.03     0.25   0.04   0.01
  18   1    -0.01  -0.01  -0.01     0.02  -0.16   0.11    -0.20  -0.07   0.03
  19   1    -0.00  -0.04   0.00    -0.03   0.18   0.05     0.23   0.06   0.02
  20   1     0.05   0.00   0.00    -0.16  -0.12  -0.03     0.14  -0.09  -0.02
  21   1     0.02  -0.02   0.01     0.18   0.11  -0.05    -0.14   0.08  -0.06
  22   1     0.05   0.03  -0.00    -0.20  -0.08  -0.02    -0.03   0.14   0.02
  23   1     0.01   0.02   0.00     0.21   0.06  -0.02     0.00  -0.09   0.07
  24   1    -0.00  -0.00  -0.01     0.10  -0.13   0.10     0.08   0.05  -0.04
  25   1     0.01  -0.03   0.00    -0.09   0.17   0.04    -0.16  -0.15  -0.02
  26   1    -0.04   0.03  -0.00     0.13  -0.14  -0.01    -0.22   0.02  -0.02
  27   1    -0.02   0.01   0.00    -0.12   0.12  -0.11     0.22  -0.01   0.04
  28   1    -0.03   0.04   0.02     0.13  -0.10  -0.02    -0.21   0.09  -0.02
  29   1     0.03  -0.02   0.00    -0.02   0.03   0.01     0.15  -0.14   0.01
  30   1     0.02  -0.04  -0.07    -0.02   0.03   0.10     0.02   0.07  -0.02
  31   1    -0.02   0.05   0.03     0.07  -0.16  -0.10    -0.04   0.19   0.12
  32   1     0.00  -0.01  -0.04     0.02  -0.03   0.05     0.03  -0.02  -0.09
                     28                     29                     30
                        a                      a                      a 
 Frequencies --  1009.1089              1034.0613              1055.8002
 Red. masses --     5.8788                 2.3494                 9.3038
 Frc consts  --     0.0000                 0.0000                 0.0000
 IR Inten    --     2.2978                 0.7304                 0.5926
 Raman Activ --     0.0000                 0.0000                 0.0000
 Depolar     --     0.0000                 0.0000                 0.0000
 Atom AN      X      Y      Z        X      Y      Z        X      Y      Z
   1   6     0.05   0.03  -0.05    -0.02  -0.04  -0.05    -0.14  -0.26   0.04
   2   6    -0.03  -0.04   0.06     0.01   0.04   0.07     0.16   0.29  -0.05
   3   6    -0.09  -0.06  -0.02     0.04   0.01  -0.07     0.26   0.11  -0.01
   4   6    -0.06   0.14  -0.04     0.03  -0.06   0.07     0.16  -0.39   0.07
   5   6     0.10  -0.07   0.06    -0.03   0.05  -0.05    -0.17   0.40  -0.07
   6   6     0.20  -0.13  -0.03    -0.07   0.01   0.02    -0.14  -0.21   0.02
   7   6     0.09   0.37   0.00    -0.01  -0.07   0.02    -0.00   0.05  -0.00
   8   6    -0.23  -0.21  -0.02    -0.00   0.08  -0.04    -0.01  -0.01  -0.01
   9   6    -0.13  -0.07   0.03     0.00   0.05   0.18    -0.06  -0.11  -0.05
  10   6     0.23  -0.02   0.00    -0.05  -0.04  -0.17     0.07   0.08   0.06
  11   1     0.02   0.02   0.03     0.00   0.01   0.03     0.05   0.08  -0.01
  12   1     0.07   0.06   0.01     0.04   0.04   0.02    -0.17  -0.06   0.01
  13   1    -0.04  -0.03   0.03    -0.07  -0.05   0.03    -0.17  -0.06  -0.00
  14   1    -0.09   0.02  -0.02    -0.10   0.05  -0.03    -0.04   0.07  -0.01
  15   1     0.09  -0.05  -0.01     0.09  -0.04  -0.01    -0.05   0.07  -0.01
  16   1    -0.14  -0.04   0.01    -0.15  -0.05   0.03    -0.03   0.02  -0.01
  17   1     0.11   0.02   0.01     0.15   0.07   0.01    -0.05   0.02  -0.01
  18   1    -0.16   0.02  -0.01    -0.20   0.00  -0.03    -0.01  -0.11   0.02
  19   1     0.10   0.05  -0.00     0.22  -0.04  -0.00    -0.03  -0.10   0.02
  20   1     0.10  -0.05  -0.00     0.25   0.07   0.01    -0.06   0.09  -0.02
  21   1    -0.12  -0.01  -0.02    -0.25  -0.03   0.01    -0.04   0.11  -0.02
  22   1     0.07   0.03   0.02     0.28   0.01   0.01    -0.01  -0.03   0.01
  23   1    -0.04  -0.08   0.03    -0.28  -0.00  -0.02     0.04  -0.05   0.01
  24   1     0.05   0.15  -0.05    -0.25  -0.03  -0.01     0.11   0.03  -0.00
  25   1     0.06   0.04  -0.03     0.29  -0.01   0.01     0.05   0.01  -0.00
  26   1    -0.06  -0.01   0.01     0.26   0.08   0.03     0.04   0.00   0.00
  27   1     0.05  -0.07   0.04    -0.25  -0.03  -0.01     0.12   0.01   0.01
  28   1     0.05   0.01   0.03     0.16  -0.07   0.02     0.07  -0.02  -0.00
  29   1    -0.28   0.22   0.01     0.01   0.01  -0.02    -0.12   0.07  -0.04
  30   1     0.00  -0.27  -0.23    -0.01   0.10   0.14    -0.01  -0.09  -0.05
  31   1    -0.12  -0.01  -0.01     0.10  -0.15  -0.10    -0.05  -0.01   0.00
  32   1    -0.18   0.19   0.15     0.07  -0.08  -0.01    -0.08   0.10   0.09
                     31                     32                     33
                        a                      a                      a 
 Frequencies --  1063.9078              1098.3075              1106.6951
 Red. masses --    10.0102                 8.8952                 7.8323
 Frc consts  --     0.0000                 0.0000                 0.0000
 IR Inten    --     0.1298                 0.0243                 0.2809
 Raman Activ --     0.0000                 0.0000                 0.0000
 Depolar     --     0.0000                 0.0000                 0.0000
 Atom AN      X      Y      Z        X      Y      Z        X      Y      Z
   1   6     0.17   0.07  -0.01    -0.21  -0.27   0.04    -0.00  -0.08   0.01
   2   6    -0.15  -0.06   0.01     0.36   0.21  -0.02     0.09   0.02  -0.00
   3   6    -0.19  -0.22   0.03    -0.06   0.06  -0.02    -0.30  -0.25   0.04
   4   6     0.22   0.19  -0.02    -0.18   0.09  -0.02     0.49   0.12  -0.00
   5   6     0.30   0.27  -0.04     0.04  -0.23   0.04    -0.33   0.04  -0.02
   6   6    -0.04  -0.44   0.08     0.40  -0.06   0.05     0.08   0.15  -0.02
   7   6    -0.37   0.08  -0.04    -0.32   0.14  -0.06     0.08   0.02   0.01
   8   6     0.04   0.11  -0.04    -0.02   0.06  -0.02     0.06  -0.07   0.03
   9   6     0.11  -0.12  -0.06     0.10  -0.02  -0.01    -0.07   0.13   0.04
  10   6    -0.06   0.12   0.08    -0.05   0.02   0.02     0.01  -0.09  -0.07
  11   1     0.09   0.09  -0.01    -0.02  -0.01   0.00     0.03   0.03  -0.01
  12   1    -0.00   0.03   0.00    -0.13  -0.08   0.01    -0.05  -0.02   0.00
  13   1    -0.00   0.02  -0.01    -0.13  -0.08   0.01    -0.05  -0.02  -0.00
  14   1    -0.08  -0.02   0.00     0.16   0.06  -0.01     0.07   0.00   0.01
  15   1    -0.07  -0.03  -0.00     0.16   0.06  -0.01     0.07   0.00  -0.00
  16   1    -0.11  -0.07   0.01    -0.07   0.02  -0.01    -0.21  -0.08   0.01
  17   1    -0.10  -0.06   0.01    -0.07   0.03   0.00    -0.21  -0.08   0.01
  18   1     0.01   0.05  -0.01    -0.07   0.02  -0.01     0.25   0.04   0.01
  19   1     0.02   0.05  -0.00    -0.07   0.02  -0.01     0.25   0.04   0.00
  20   1     0.05   0.07  -0.01    -0.04  -0.07   0.01    -0.23   0.01  -0.01
  21   1     0.03   0.07  -0.01    -0.06  -0.08   0.02    -0.22   0.01  -0.01
  22   1     0.00  -0.12   0.02     0.17  -0.02   0.01     0.04   0.05  -0.00
  23   1    -0.02  -0.12   0.02     0.13  -0.01   0.01     0.05   0.05  -0.01
  24   1    -0.10   0.01  -0.01    -0.19   0.02  -0.02    -0.01   0.01  -0.00
  25   1    -0.08   0.02  -0.01    -0.17   0.04  -0.01    -0.03  -0.00  -0.00
  26   1     0.07   0.05  -0.00     0.01   0.02  -0.00    -0.00  -0.01   0.01
  27   1     0.10   0.03   0.00    -0.00   0.02  -0.01    -0.02  -0.02   0.01
  28   1     0.07  -0.06  -0.03     0.01  -0.03  -0.01    -0.09   0.07   0.02
  29   1     0.07  -0.07  -0.04     0.10  -0.07  -0.00    -0.02   0.04   0.04
  30   1    -0.01   0.07   0.08     0.00   0.07   0.05     0.01  -0.01  -0.02
  31   1     0.01   0.01   0.01     0.02   0.02   0.01     0.01  -0.01  -0.01
  32   1     0.01   0.01   0.03     0.03  -0.03  -0.02     0.02  -0.04  -0.05
                     34                     35                     36
                        a                      a                      a 
 Frequencies --  1108.8994              1121.1905              1135.2284
 Red. masses --     7.8692                 7.5949                 7.9001
 Frc consts  --     0.0000                 0.0000                 0.0000
 IR Inten    --     0.5899                 1.9263                 0.5544
 Raman Activ --     0.0000                 0.0000                 0.0000
 Depolar     --     0.0000                 0.0000                 0.0000
 Atom AN      X      Y      Z        X      Y      Z        X      Y      Z
   1   6    -0.08  -0.23   0.04    -0.15  -0.03   0.00     0.08  -0.07   0.01
   2   6     0.18   0.22  -0.03     0.30  -0.15   0.03    -0.13   0.19  -0.03
   3   6    -0.08  -0.12   0.02    -0.34   0.14  -0.03     0.12  -0.22   0.04
   4   6    -0.06   0.24  -0.05    -0.00   0.09  -0.01     0.07   0.10  -0.01
   5   6     0.35   0.05   0.01     0.07   0.02  -0.01    -0.08  -0.13   0.01
   6   6    -0.29  -0.07  -0.01    -0.24   0.09  -0.03     0.04   0.18  -0.01
   7   6     0.26   0.03   0.03     0.09  -0.22   0.03     0.21   0.05  -0.04
   8   6     0.01  -0.20   0.03    -0.08   0.19  -0.03    -0.37   0.03  -0.03
   9   6     0.00   0.19   0.06     0.00  -0.28  -0.09     0.28  -0.28  -0.10
  10   6    -0.05  -0.12  -0.09     0.06   0.17   0.14    -0.07   0.16   0.20
  11   1     0.05   0.07  -0.01    -0.10  -0.13   0.02     0.09   0.11  -0.02
  12   1    -0.14  -0.05   0.01     0.05  -0.03  -0.01    -0.09  -0.00   0.01
  13   1    -0.14  -0.05  -0.00     0.05  -0.02   0.02    -0.09  -0.01  -0.01
  14   1     0.05   0.06  -0.01     0.25  -0.03   0.01    -0.12   0.04  -0.01
  15   1     0.05   0.06  -0.01     0.25  -0.03   0.01    -0.12   0.04  -0.01
  16   1    -0.09  -0.03  -0.00    -0.10   0.04  -0.01     0.00  -0.06   0.01
  17   1    -0.10  -0.03   0.01    -0.09   0.04  -0.01     0.01  -0.06   0.01
  18   1    -0.11   0.06  -0.02     0.10   0.04  -0.01    -0.02   0.02  -0.00
  19   1    -0.11   0.06  -0.01     0.10   0.04   0.00    -0.01   0.01  -0.01
  20   1     0.11   0.02   0.00     0.12   0.02   0.00    -0.07  -0.02   0.01
  21   1     0.12   0.02  -0.00     0.12   0.02   0.00    -0.09  -0.04   0.00
  22   1    -0.26  -0.03  -0.01    -0.04   0.02  -0.01    -0.02   0.03  -0.01
  23   1    -0.24  -0.04  -0.01    -0.04   0.03  -0.01    -0.05   0.06  -0.02
  24   1     0.10   0.02   0.00     0.09  -0.06   0.02     0.05   0.00   0.00
  25   1     0.06  -0.02  -0.00     0.15  -0.03   0.02     0.13   0.06   0.01
  26   1    -0.12  -0.04   0.01     0.05   0.02  -0.02    -0.22  -0.04  -0.03
  27   1    -0.09  -0.08   0.02     0.03   0.07  -0.02    -0.20   0.01  -0.04
  28   1    -0.13   0.06   0.02     0.19  -0.11  -0.03     0.20  -0.21  -0.08
  29   1     0.03   0.01   0.09    -0.05  -0.02  -0.11     0.15  -0.15  -0.05
  30   1     0.01   0.04   0.02    -0.02  -0.07  -0.02    -0.01   0.06   0.06
  31   1     0.04   0.00  -0.01    -0.05   0.01   0.02    -0.01   0.07   0.07
  32   1     0.07  -0.10  -0.10    -0.09   0.13   0.13     0.00   0.03   0.04
                     37                     38                     39
                        a                      a                      a 
 Frequencies --  1143.5339              1184.3962              1205.4175
 Red. masses --     8.2377                 6.6868                 6.1228
 Frc consts  --     0.0000                 0.0000                 0.0000
 IR Inten    --     2.1836                 1.3546                 0.5433
 Raman Activ --     0.0000                 0.0000                 0.0000
 Depolar     --     0.0000                 0.0000                 0.0000
 Atom AN      X      Y      Z        X      Y      Z        X      Y      Z
   1   6    -0.07   0.12  -0.02    -0.01   0.01  -0.04     0.01  -0.05  -0.23
   2   6     0.11  -0.25   0.04     0.01  -0.02   0.06    -0.02   0.07   0.35
   3   6    -0.11   0.26  -0.05     0.00   0.03  -0.08     0.01  -0.07  -0.32
   4   6     0.04  -0.22   0.04     0.01  -0.02   0.11    -0.02   0.06   0.28
   5   6    -0.06   0.22  -0.04     0.03   0.03  -0.14    -0.00  -0.05  -0.21
   6   6     0.05  -0.19   0.03     0.01  -0.02   0.20    -0.02   0.03   0.12
   7   6     0.08   0.33  -0.04     0.06   0.01  -0.26    -0.01  -0.02  -0.02
   8   6    -0.25  -0.23  -0.04     0.07  -0.04   0.37    -0.02   0.01  -0.08
   9   6     0.26   0.06   0.04    -0.08   0.12  -0.37     0.02  -0.03   0.11
  10   6    -0.15  -0.04   0.00     0.07  -0.08   0.22    -0.02   0.03  -0.07
  11   1    -0.11  -0.13   0.02    -0.01  -0.01   0.02     0.00   0.02   0.10
  12   1     0.12   0.01  -0.01     0.04   0.03   0.00     0.15   0.17   0.04
  13   1     0.12   0.02   0.01    -0.01  -0.02   0.01    -0.17  -0.15   0.08
  14   1     0.11  -0.05   0.01    -0.01   0.02  -0.02     0.01   0.20  -0.10
  15   1     0.11  -0.05   0.01     0.02  -0.04  -0.00    -0.01  -0.21  -0.03
  16   1    -0.02   0.06  -0.01    -0.04  -0.04   0.02     0.05  -0.18   0.10
  17   1    -0.02   0.06  -0.01     0.01   0.06   0.01    -0.02   0.19   0.03
  18   1     0.05  -0.05   0.01    -0.06   0.04  -0.03     0.08   0.17  -0.08
  19   1     0.05  -0.05   0.01     0.02  -0.07  -0.01    -0.05  -0.18  -0.03
  20   1    -0.02   0.05  -0.01     0.02   0.10   0.01    -0.08   0.12   0.02
  21   1    -0.02   0.05  -0.01    -0.08  -0.07   0.04     0.12  -0.11   0.07
  22   1    -0.01  -0.04   0.01     0.03  -0.13  -0.01    -0.09  -0.08  -0.01
  23   1     0.00  -0.04   0.01    -0.13   0.08  -0.06     0.14   0.08  -0.03
  24   1     0.07   0.10  -0.02    -0.15  -0.14   0.07     0.13  -0.00   0.01
  25   1     0.04   0.07  -0.02     0.01   0.17   0.02    -0.08   0.01  -0.00
  26   1    -0.25  -0.03  -0.01     0.13  -0.23   0.00    -0.10   0.04  -0.01
  27   1    -0.14  -0.09   0.01    -0.15   0.13  -0.12     0.11  -0.02   0.03
  28   1    -0.02  -0.07  -0.03    -0.17  -0.06  -0.14     0.02   0.04   0.05
  29   1     0.14  -0.07   0.09     0.06  -0.06   0.06    -0.02   0.02  -0.02
  30   1     0.00   0.14   0.10     0.05  -0.07  -0.17    -0.02   0.01   0.05
  31   1     0.07   0.03   0.02    -0.11   0.22   0.14     0.03  -0.07  -0.05
  32   1     0.10  -0.12  -0.10    -0.04   0.04  -0.09     0.01  -0.01   0.03
                     40                     41                     42
                        a                      a                      a 
 Frequencies --  1229.4158              1234.0501              1258.1030
 Red. masses --     3.5564                 4.6318                 3.4399
 Frc consts  --     0.0000                 0.0000                 0.0000
 IR Inten    --     0.7568                 0.0776                 0.2766
 Raman Activ --     0.0000                 0.0000                 0.0000
 Depolar     --     0.0000                 0.0000                 0.0000
 Atom AN      X      Y      Z        X      Y      Z        X      Y      Z
   1   6     0.04  -0.07   0.07     0.01  -0.05  -0.20     0.03  -0.07  -0.09
   2   6    -0.08   0.12  -0.09    -0.02   0.06   0.22    -0.07   0.07   0.05
   3   6    -0.08  -0.13   0.04    -0.02  -0.03  -0.04    -0.09  -0.03   0.08
   4   6    -0.15   0.07   0.01    -0.02  -0.01  -0.13    -0.09  -0.05  -0.13
   5   6    -0.16  -0.05  -0.06    -0.04   0.04   0.26    -0.07   0.08   0.07
   6   6    -0.16  -0.03   0.07    -0.01  -0.06  -0.26     0.00  -0.07   0.05
   7   6    -0.13   0.06  -0.08    -0.04   0.05   0.16     0.09   0.06  -0.14
   8   6    -0.07  -0.09   0.03    -0.01  -0.03   0.01     0.05  -0.02   0.13
   9   6     0.08   0.11  -0.04     0.00   0.09  -0.13    -0.07  -0.13   0.07
  10   6    -0.07  -0.08   0.04    -0.01  -0.08   0.11     0.11   0.16  -0.13
  11   1     0.06   0.07  -0.03     0.01   0.03   0.08     0.04   0.05   0.03
  12   1    -0.10  -0.04   0.00     0.11   0.14   0.03     0.02   0.06   0.02
  13   1    -0.02   0.03  -0.03    -0.14  -0.12   0.06    -0.09  -0.06   0.02
  14   1     0.01  -0.01   0.02     0.17   0.14  -0.05     0.23   0.06  -0.01
  15   1     0.09   0.08  -0.00    -0.15  -0.14  -0.02    -0.08  -0.03  -0.01
  16   1     0.14  -0.00  -0.00     0.21  -0.01   0.01     0.24   0.05  -0.01
  17   1     0.23  -0.02   0.01    -0.14   0.01   0.00     0.08  -0.04  -0.00
  18   1     0.19   0.04  -0.00     0.24  -0.05   0.04     0.19  -0.05   0.04
  19   1     0.31   0.03   0.00    -0.15   0.07   0.01     0.14   0.08   0.01
  20   1     0.31   0.06   0.02    -0.01  -0.15  -0.02     0.22  -0.02  -0.00
  21   1     0.27  -0.01   0.02     0.11   0.15  -0.07    -0.02   0.05  -0.02
  22   1     0.29  -0.03   0.01     0.11   0.16   0.02     0.11  -0.02   0.01
  23   1     0.28   0.06  -0.01    -0.01  -0.14   0.07    -0.12  -0.00  -0.02
  24   1     0.26   0.01   0.03    -0.11   0.08  -0.05    -0.15  -0.07   0.03
  25   1     0.18   0.07   0.01     0.19  -0.08  -0.00    -0.04   0.08  -0.00
  26   1     0.06  -0.02   0.01     0.25   0.02   0.03    -0.24  -0.11  -0.02
  27   1     0.16   0.01   0.01    -0.17  -0.02  -0.02    -0.05   0.02  -0.02
  28   1    -0.02  -0.07  -0.05     0.03  -0.13  -0.10    -0.20   0.30   0.15
  29   1    -0.05   0.09   0.12    -0.02   0.03   0.07     0.20  -0.24  -0.17
  30   1     0.01   0.03  -0.01     0.03   0.01  -0.06    -0.03  -0.05   0.05
  31   1     0.01   0.07   0.04    -0.03   0.11   0.08     0.01  -0.15  -0.11
  32   1     0.05  -0.07  -0.09     0.00  -0.02  -0.09    -0.06   0.11   0.17
                     43                     44                     45
                        a                      a                      a 
 Frequencies --  1265.9868              1274.2607              1281.0406
 Red. masses --     3.1719                 1.5355                 3.0498
 Frc consts  --     0.0000                 0.0000                 0.0000
 IR Inten    --     0.5033                 0.1531                 0.1935
 Raman Activ --     0.0000                 0.0000                 0.0000
 Depolar     --     0.0000                 0.0000                 0.0000
 Atom AN      X      Y      Z        X      Y      Z        X      Y      Z
   1   6    -0.02   0.03  -0.14    -0.01   0.02  -0.02    -0.04   0.08   0.06
   2   6     0.08  -0.05   0.04     0.04  -0.01   0.11     0.12  -0.06   0.00
   3   6     0.08   0.05   0.14     0.04   0.02   0.05     0.14  -0.01  -0.13
   4   6     0.08   0.02  -0.17     0.03   0.02  -0.06     0.07   0.09   0.03
   5   6     0.04  -0.07   0.04     0.00  -0.03   0.03    -0.04  -0.08   0.09
   6   6    -0.06   0.09   0.13    -0.04   0.03   0.02    -0.13   0.01  -0.11
   7   6    -0.07  -0.09  -0.17    -0.03  -0.03  -0.12    -0.11   0.05  -0.03
   8   6    -0.06   0.02   0.03    -0.03  -0.03  -0.03    -0.06  -0.10   0.13
   9   6     0.07   0.04   0.05     0.03  -0.01   0.00    -0.02  -0.01  -0.01
  10   6    -0.07  -0.05  -0.02    -0.01   0.03  -0.01     0.06   0.08  -0.06
  11   1    -0.04  -0.04   0.05    -0.02  -0.02   0.03    -0.06  -0.07  -0.02
  12   1     0.10   0.08   0.00     0.02   0.01   0.00    -0.01  -0.05  -0.02
  13   1    -0.05  -0.08   0.05     0.01  -0.01   0.01     0.07   0.04  -0.00
  14   1     0.21   0.02  -0.00    -0.15   0.03  -0.02    -0.33  -0.04  -0.01
  15   1    -0.38  -0.06  -0.00     0.06  -0.06  -0.00     0.04  -0.01   0.00
  16   1    -0.15   0.06  -0.04     0.24   0.05  -0.01    -0.25  -0.09   0.02
  17   1    -0.17  -0.09  -0.01    -0.41  -0.06  -0.01    -0.19   0.06   0.00
  18   1    -0.11  -0.08   0.04    -0.35  -0.05   0.01     0.05   0.04  -0.01
  19   1    -0.17   0.08   0.00     0.23   0.05   0.01    -0.30  -0.04  -0.02
  20   1     0.23  -0.01   0.01    -0.25  -0.04  -0.01     0.03  -0.05   0.01
  21   1    -0.32  -0.03  -0.02     0.25   0.03  -0.00     0.10   0.03  -0.02
  22   1     0.12  -0.06  -0.01     0.40   0.03   0.01     0.19   0.08   0.01
  23   1     0.02   0.09  -0.03    -0.30  -0.01  -0.02     0.21  -0.02   0.03
  24   1     0.14  -0.09   0.05     0.30  -0.03   0.04     0.01   0.01   0.01
  25   1     0.12   0.10   0.02    -0.16   0.05  -0.00     0.40   0.05   0.01
  26   1    -0.15  -0.04  -0.02     0.04   0.01   0.00     0.02  -0.08   0.01
  27   1     0.36   0.07   0.01     0.02  -0.01   0.01     0.06   0.03  -0.01
  28   1     0.04  -0.04  -0.00    -0.04   0.04   0.02    -0.20   0.21   0.08
  29   1    -0.11   0.13   0.09     0.01  -0.01  -0.01     0.20  -0.20  -0.07
  30   1    -0.00   0.03   0.02    -0.01  -0.02   0.00    -0.01  -0.03   0.02
  31   1     0.03   0.01   0.01     0.01  -0.02  -0.01     0.00  -0.07  -0.06
  32   1     0.04  -0.06  -0.05     0.01  -0.00   0.01    -0.03   0.05   0.08
                     46                     47                     48
                        a                      a                      a 
 Frequencies --  1286.1503              1293.8381              1298.4999
 Red. masses --     2.0680                 2.2878                 2.1462
 Frc consts  --     0.0000                 0.0000                 0.0000
 IR Inten    --     0.2309                 0.0884                 0.0539
 Raman Activ --     0.0000                 0.0000                 0.0000
 Depolar     --     0.0000                 0.0000                 0.0000
 Atom AN      X      Y      Z        X      Y      Z        X      Y      Z
   1   6    -0.01   0.01  -0.08    -0.01   0.01  -0.05     0.00  -0.01  -0.04
   2   6     0.05  -0.03  -0.09     0.03  -0.00   0.06     0.00  -0.01  -0.07
   3   6     0.05   0.02   0.13     0.03   0.02   0.14    -0.00   0.01   0.09
   4   6     0.01   0.05   0.09     0.00   0.01  -0.07    -0.01   0.03   0.17
   5   6    -0.03  -0.04  -0.05    -0.01  -0.06  -0.21    -0.00   0.00  -0.03
   6   6    -0.05   0.01   0.05    -0.02  -0.01  -0.02     0.02  -0.04  -0.19
   7   6    -0.04   0.06   0.09    -0.03   0.06   0.15     0.02  -0.02  -0.06
   8   6    -0.02  -0.09  -0.08    -0.01  -0.04   0.03     0.01   0.05   0.10
   9   6    -0.03  -0.00  -0.06    -0.04   0.02  -0.02     0.02  -0.01   0.04
  10   6     0.05   0.06   0.01     0.04   0.01  -0.00    -0.02  -0.03  -0.02
  11   1    -0.02  -0.02   0.01    -0.02  -0.01   0.03    -0.00   0.00   0.00
  12   1     0.06   0.04  -0.00     0.03   0.03   0.00     0.03   0.02   0.00
  13   1    -0.03  -0.04   0.02    -0.02  -0.03   0.02    -0.03  -0.02   0.01
  14   1     0.27  -0.03   0.02     0.01   0.03  -0.01     0.21  -0.02   0.02
  15   1    -0.39   0.02   0.00    -0.09  -0.04   0.00    -0.21   0.02   0.00
  16   1    -0.37   0.03  -0.03     0.18   0.08  -0.03    -0.20   0.03  -0.02
  17   1     0.21  -0.05  -0.00    -0.28  -0.10  -0.01     0.20  -0.03   0.00
  18   1    -0.08   0.04  -0.02    -0.37  -0.06   0.00    -0.17   0.06  -0.04
  19   1     0.02  -0.05  -0.00     0.35   0.07   0.01     0.19  -0.07   0.00
  20   1    -0.03   0.02   0.01     0.08   0.12   0.01    -0.39  -0.02  -0.01
  21   1     0.12  -0.02   0.02    -0.01  -0.11   0.04     0.39   0.02   0.02
  22   1     0.11  -0.01   0.01    -0.35  -0.02  -0.02     0.05   0.10   0.00
  23   1     0.05   0.03  -0.01     0.44   0.03   0.02    -0.08  -0.10   0.03
  24   1     0.33   0.09  -0.01    -0.15   0.07  -0.04    -0.32  -0.06   0.00
  25   1    -0.19  -0.06  -0.01     0.22  -0.06   0.00     0.27   0.05   0.01
  26   1     0.30   0.07   0.03     0.08  -0.00   0.01    -0.23  -0.08  -0.02
  27   1    -0.31  -0.09   0.00    -0.09  -0.01  -0.01     0.22   0.08  -0.01
  28   1    -0.09   0.07   0.01    -0.03   0.03   0.01     0.02   0.00   0.01
  29   1     0.15  -0.15  -0.08     0.09  -0.10  -0.03    -0.06   0.07   0.04
  30   1    -0.01  -0.05  -0.02     0.01  -0.01  -0.01     0.00   0.03   0.02
  31   1    -0.02  -0.02  -0.02    -0.01  -0.01  -0.01     0.01   0.00   0.00
  32   1    -0.02   0.04   0.04    -0.02   0.03   0.02     0.00  -0.01  -0.01
                     49                     50                     51
                        a                      a                      a 
 Frequencies --  1315.1043              1347.1253              1353.9852
 Red. masses --     3.5916                 4.0978                 4.6480
 Frc consts  --     0.0000                 0.0000                 0.0000
 IR Inten    --     0.4903                 0.0195                 3.5185
 Raman Activ --     0.0000                 0.0000                 0.0000
 Depolar     --     0.0000                 0.0000                 0.0000
 Atom AN      X      Y      Z        X      Y      Z        X      Y      Z
   1   6     0.04  -0.09   0.01     0.04  -0.07   0.01     0.01  -0.01   0.00
   2   6    -0.22   0.02  -0.01    -0.27  -0.03  -0.00    -0.05  -0.01  -0.00
   3   6    -0.14   0.06  -0.01     0.01   0.07  -0.01     0.01   0.01  -0.00
   4   6     0.10  -0.08   0.03     0.23   0.03   0.00     0.04   0.01   0.00
   5   6     0.20   0.00   0.00    -0.02  -0.08   0.01    -0.03  -0.01   0.01
   6   6     0.04   0.10  -0.03    -0.24  -0.03  -0.01    -0.03  -0.02   0.01
   7   6    -0.17  -0.06   0.01     0.05   0.07  -0.00     0.01   0.03  -0.03
   8   6    -0.19  -0.08   0.03     0.24   0.05   0.02     0.08  -0.08  -0.08
   9   6     0.03   0.05  -0.02     0.01  -0.10  -0.02    -0.37   0.34   0.16
  10   6     0.01   0.04  -0.02    -0.01  -0.02  -0.01     0.11  -0.00   0.08
  11   1     0.08   0.10  -0.01     0.08   0.09  -0.01     0.01   0.02  -0.00
  12   1    -0.02   0.03   0.02     0.01   0.04   0.03     0.00   0.01   0.00
  13   1    -0.02   0.01  -0.03     0.01   0.03  -0.04     0.00   0.01  -0.01
  14   1     0.28   0.03   0.00     0.29   0.03  -0.00     0.05   0.01  -0.00
  15   1     0.25   0.03  -0.00     0.28   0.03   0.01     0.05   0.01   0.00
  16   1     0.19   0.02   0.01    -0.02  -0.00   0.02    -0.01  -0.00   0.00
  17   1     0.22   0.01  -0.01    -0.02  -0.01  -0.02    -0.01  -0.00  -0.00
  18   1    -0.15  -0.02  -0.02    -0.29  -0.02  -0.01    -0.05  -0.00   0.00
  19   1    -0.12  -0.02   0.01    -0.27  -0.02  -0.01    -0.05  -0.01  -0.00
  20   1    -0.31  -0.02  -0.01     0.03   0.01   0.02     0.03   0.00   0.00
  21   1    -0.27  -0.03  -0.01     0.03   0.00  -0.01     0.04   0.01  -0.00
  22   1    -0.07   0.00  -0.02     0.27   0.02   0.01     0.07   0.00   0.00
  23   1    -0.05  -0.00   0.01     0.30   0.03   0.01     0.01   0.00  -0.00
  24   1     0.24   0.02   0.00    -0.06  -0.00   0.01     0.01  -0.01   0.00
  25   1     0.29   0.03   0.02    -0.07  -0.02  -0.02    -0.02   0.01  -0.01
  26   1     0.25  -0.00   0.03    -0.25  -0.01  -0.02    -0.19   0.01  -0.02
  27   1     0.20   0.02   0.01    -0.30  -0.02  -0.04     0.15  -0.05   0.05
  28   1    -0.11   0.09   0.03     0.01   0.00   0.01     0.38  -0.36  -0.13
  29   1     0.14  -0.12  -0.01    -0.14   0.12   0.01     0.33  -0.33  -0.14
  30   1    -0.01  -0.02  -0.01     0.00   0.03   0.04     0.02  -0.14  -0.16
  31   1     0.01  -0.04  -0.02    -0.01   0.04   0.02    -0.05  -0.08  -0.02
  32   1     0.01   0.00   0.01    -0.02   0.01   0.02     0.01   0.01  -0.09
                     52                     53                     54
                        a                      a                      a 
 Frequencies --  1370.6902              1378.5965              1379.5916
 Red. masses --     4.8041                 5.7604                 5.5037
 Frc consts  --     0.0000                 0.0000                 0.0000
 IR Inten    --     0.7965                 0.3553                 0.0482
 Raman Activ --     0.0000                 0.0000                 0.0000
 Depolar     --     0.0000                 0.0000                 0.0000
 Atom AN      X      Y      Z        X      Y      Z        X      Y      Z
   1   6    -0.03   0.05  -0.01     0.01   0.01  -0.00     0.04  -0.01   0.00
   2   6     0.27   0.05  -0.00    -0.01  -0.00  -0.00    -0.23  -0.04   0.00
   3   6    -0.24  -0.04   0.00     0.06  -0.00   0.00     0.36   0.02   0.01
   4   6    -0.04  -0.05   0.01    -0.18  -0.03  -0.00    -0.34  -0.02  -0.01
   5   6     0.25   0.01   0.01     0.30   0.02   0.01     0.17   0.04   0.00
   6   6    -0.13   0.03  -0.01    -0.37  -0.03  -0.02     0.04   0.03  -0.00
   7   6    -0.17   0.02  -0.02     0.33   0.04   0.02    -0.18  -0.01  -0.01
   8   6     0.29   0.01   0.02    -0.23  -0.01  -0.02     0.18   0.00   0.02
   9   6    -0.07  -0.02   0.00     0.03   0.03   0.01    -0.04  -0.02  -0.00
  10   6     0.02  -0.01   0.00    -0.00  -0.01  -0.00     0.01  -0.00   0.00
  11   1    -0.06  -0.07   0.01    -0.01  -0.02   0.00     0.02   0.02  -0.00
  12   1    -0.01  -0.04  -0.02    -0.01  -0.01  -0.00    -0.01   0.02   0.01
  13   1    -0.01  -0.03   0.03    -0.01  -0.00   0.00    -0.01   0.02  -0.02
  14   1    -0.25  -0.03   0.01    -0.01  -0.00  -0.00     0.18   0.02  -0.01
  15   1    -0.25  -0.03  -0.01    -0.01  -0.00   0.00     0.18   0.03   0.01
  16   1     0.23   0.03  -0.01    -0.04   0.00  -0.01    -0.30  -0.02  -0.01
  17   1     0.23   0.03   0.01    -0.04   0.00   0.00    -0.31  -0.02  -0.00
  18   1     0.05   0.01  -0.02     0.13   0.02  -0.00     0.29   0.02   0.01
  19   1     0.05   0.02   0.02     0.13   0.02   0.01     0.29   0.02   0.00
  20   1    -0.27  -0.02  -0.01    -0.25  -0.02  -0.00    -0.14  -0.02  -0.01
  21   1    -0.26  -0.02  -0.01    -0.24  -0.02  -0.01    -0.14  -0.02   0.01
  22   1     0.13  -0.00  -0.01     0.30   0.03   0.01    -0.05  -0.01  -0.01
  23   1     0.13   0.01   0.02     0.30   0.03   0.01    -0.05  -0.01   0.01
  24   1     0.18   0.01   0.02    -0.27  -0.02  -0.00     0.17   0.01   0.01
  25   1     0.17   0.01  -0.00    -0.28  -0.03  -0.02     0.17   0.01   0.01
  26   1    -0.28  -0.00  -0.02     0.17  -0.00   0.01    -0.16  -0.00  -0.01
  27   1    -0.27  -0.02  -0.04     0.19   0.01   0.04    -0.16  -0.01  -0.03
  28   1     0.07  -0.05  -0.01    -0.02  -0.00  -0.00     0.03  -0.01  -0.00
  29   1    -0.06   0.04  -0.01     0.05  -0.04  -0.01    -0.04   0.02  -0.00
  30   1    -0.00  -0.02   0.01     0.01   0.03  -0.01    -0.01  -0.01   0.01
  31   1    -0.02   0.02   0.01     0.01  -0.01  -0.00    -0.01   0.01   0.00
  32   1    -0.01   0.01   0.01    -0.01   0.01  -0.01    -0.00   0.00   0.01
                     55                     56                     57
                        a                      a                      a 
 Frequencies --  1415.4521              1415.9234              1491.2658
 Red. masses --     3.2210                 3.1836                 1.8852
 Frc consts  --     0.0000                 0.0000                 0.0000
 IR Inten    --     2.1602                 0.8568                 0.4438
 Raman Activ --     0.0000                 0.0000                 0.0000
 Depolar     --     0.0000                 0.0000                 0.0000
 Atom AN      X      Y      Z        X      Y      Z        X      Y      Z
   1   6    -0.01  -0.01   0.00     0.35   0.25  -0.03     0.00  -0.00   0.00
   2   6     0.00  -0.00   0.00    -0.08  -0.00  -0.00     0.00   0.00  -0.00
   3   6     0.00  -0.00   0.00    -0.00   0.02  -0.00     0.00   0.01  -0.00
   4   6     0.00   0.00  -0.00     0.03  -0.01   0.00    -0.00  -0.01   0.00
   5   6    -0.01   0.00   0.00    -0.02  -0.00  -0.00    -0.01  -0.03   0.01
   6   6     0.01   0.01   0.01     0.00  -0.00   0.00     0.00   0.07  -0.02
   7   6    -0.00  -0.02  -0.00     0.00  -0.00  -0.00     0.02   0.03  -0.01
   8   6    -0.03  -0.04  -0.02    -0.00  -0.00  -0.00    -0.00  -0.20   0.06
   9   6    -0.07   0.08   0.02    -0.00   0.00   0.00     0.09   0.03   0.12
  10   6     0.13  -0.30  -0.28     0.00  -0.01  -0.01     0.04   0.03  -0.01
  11   1     0.01   0.01  -0.00    -0.24  -0.44   0.07    -0.00  -0.00   0.00
  12   1     0.01   0.01   0.00    -0.44  -0.22  -0.12    -0.00   0.00   0.00
  13   1     0.02   0.01  -0.01    -0.45  -0.18   0.17    -0.00   0.00  -0.00
  14   1    -0.00   0.00  -0.00     0.08  -0.03   0.03    -0.00  -0.00   0.00
  15   1    -0.00   0.00   0.00     0.08  -0.04  -0.02    -0.00  -0.00  -0.00
  16   1    -0.00  -0.00  -0.00     0.01   0.01  -0.00     0.00  -0.02   0.02
  17   1    -0.00  -0.00   0.00     0.01   0.01  -0.00     0.00  -0.03  -0.02
  18   1     0.00  -0.00   0.00    -0.03  -0.00  -0.00     0.00   0.02  -0.02
  19   1    -0.00   0.00  -0.00    -0.03  -0.00  -0.00     0.00   0.03   0.01
  20   1     0.01   0.00   0.00     0.01   0.00   0.00    -0.00   0.07   0.04
  21   1     0.00   0.00   0.00     0.01   0.00  -0.00     0.01   0.06  -0.06
  22   1    -0.00  -0.01  -0.00    -0.00  -0.00   0.00     0.01  -0.15  -0.08
  23   1    -0.02   0.00  -0.00    -0.00  -0.00  -0.00    -0.01  -0.12   0.13
  24   1     0.05   0.02  -0.02     0.00   0.00  -0.00    -0.02  -0.08   0.08
  25   1    -0.01   0.03   0.01    -0.00   0.00   0.00     0.00  -0.10  -0.04
  26   1     0.01   0.04   0.01     0.00   0.00   0.00    -0.05   0.46   0.19
  27   1     0.06   0.01  -0.01     0.00   0.00  -0.00     0.03   0.32  -0.39
  28   1     0.10  -0.03  -0.01     0.00  -0.00  -0.00    -0.27  -0.23  -0.12
  29   1     0.09  -0.08   0.03     0.00  -0.00   0.00    -0.05   0.07  -0.36
  30   1     0.03   0.29   0.40     0.00   0.01   0.01    -0.05  -0.07   0.10
  31   1    -0.16   0.46   0.17    -0.01   0.02   0.01    -0.12   0.01  -0.00
  32   1    -0.28   0.23   0.34    -0.01   0.01   0.01     0.04  -0.02  -0.03
                     58                     59                     60
                        a                      a                      a 
 Frequencies --  1493.4104              1495.9995              1496.7434
 Red. masses --     1.8461                 1.8918                 1.9422
 Frc consts  --     0.0000                 0.0000                 0.0000
 IR Inten    --     0.2279                 0.0937                 0.1606
 Raman Activ --     0.0000                 0.0000                 0.0000
 Depolar     --     0.0000                 0.0000                 0.0000
 Atom AN      X      Y      Z        X      Y      Z        X      Y      Z
   1   6     0.00   0.00  -0.00    -0.00   0.03  -0.01    -0.01   0.02  -0.00
   2   6     0.01  -0.02   0.00     0.01  -0.14   0.02    -0.02  -0.05   0.01
   3   6    -0.00   0.04  -0.01    -0.03  -0.04   0.01     0.00  -0.16   0.03
   4   6    -0.02   0.03  -0.01    -0.01   0.17  -0.03     0.03   0.04  -0.01
   5   6     0.01  -0.10   0.02     0.03  -0.01   0.00    -0.01   0.14  -0.02
   6   6     0.03  -0.00   0.01     0.01  -0.10   0.02    -0.03   0.01  -0.00
   7   6    -0.01   0.20  -0.04    -0.02   0.02  -0.01     0.03  -0.03   0.01
   8   6    -0.03  -0.01  -0.01     0.00   0.04  -0.01    -0.00  -0.11   0.02
   9   6    -0.04  -0.04  -0.10     0.06   0.03   0.09    -0.05  -0.04  -0.10
  10   6     0.07   0.03   0.01    -0.00  -0.01  -0.02     0.04   0.03   0.02
  11   1    -0.00  -0.00   0.00     0.02   0.03  -0.00     0.02   0.04  -0.01
  12   1    -0.00  -0.00  -0.00     0.01  -0.10  -0.05     0.02  -0.08  -0.04
  13   1    -0.00  -0.00   0.00     0.01  -0.08   0.08     0.02  -0.06   0.06
  14   1    -0.01   0.03  -0.03    -0.01   0.24  -0.25     0.01   0.08  -0.08
  15   1    -0.01   0.04   0.02    -0.02   0.31   0.16     0.01   0.10   0.05
  16   1     0.01  -0.06   0.06     0.02   0.07  -0.07    -0.01   0.26  -0.27
  17   1     0.01  -0.07  -0.04     0.02   0.09   0.04    -0.02   0.33   0.17
  18   1     0.01  -0.05   0.06     0.02  -0.28   0.30    -0.02  -0.07   0.07
  19   1     0.02  -0.07  -0.03     0.03  -0.36  -0.18    -0.01  -0.09  -0.04
  20   1    -0.02   0.21   0.11    -0.02   0.04   0.02     0.03  -0.29  -0.15
  21   1    -0.01   0.16  -0.17    -0.02   0.03  -0.03     0.01  -0.22   0.24
  22   1    -0.02   0.02   0.01    -0.03   0.23   0.11     0.02  -0.01  -0.01
  23   1    -0.02   0.01  -0.02    -0.01   0.17  -0.19     0.01  -0.01   0.01
  24   1     0.02  -0.32   0.36     0.01  -0.05   0.06    -0.01   0.05  -0.05
  25   1     0.03  -0.44  -0.21     0.03  -0.07  -0.03    -0.03   0.06   0.03
  26   1     0.02   0.04   0.01     0.01  -0.08  -0.03    -0.03   0.25   0.10
  27   1     0.01   0.02  -0.02     0.00  -0.05   0.07     0.00   0.17  -0.21
  28   1     0.22   0.19   0.09    -0.19  -0.16  -0.08     0.20   0.18   0.09
  29   1     0.04  -0.06   0.30    -0.04   0.05  -0.25     0.04  -0.05   0.27
  30   1    -0.06  -0.04   0.16     0.00  -0.00  -0.00    -0.03  -0.03   0.08
  31   1    -0.25  -0.06  -0.04     0.03   0.04   0.02    -0.14  -0.07  -0.03
  32   1     0.00   0.00  -0.16     0.00  -0.00   0.06     0.01  -0.00  -0.12
                     61                     62                     63
                        a                      a                      a 
 Frequencies --  1498.0072              1499.8890              1501.7457
 Red. masses --     1.9165                 1.9311                 2.0385
 Frc consts  --     0.0000                 0.0000                 0.0000
 IR Inten    --     0.0616                 0.2829                 0.2257
 Raman Activ --     0.0000                 0.0000                 0.0000
 Depolar     --     0.0000                 0.0000                 0.0000
 Atom AN      X      Y      Z        X      Y      Z        X      Y      Z
   1   6    -0.01  -0.01   0.00     0.01  -0.04   0.01     0.01  -0.02   0.00
   2   6    -0.03   0.10  -0.02     0.00   0.15  -0.02     0.02  -0.01   0.00
   3   6     0.03  -0.14   0.02    -0.01   0.08  -0.01    -0.03   0.14  -0.02
   4   6     0.02  -0.06   0.01    -0.02   0.09  -0.02     0.00   0.11  -0.02
   5   6    -0.02   0.07  -0.01     0.03   0.03  -0.00    -0.01   0.19  -0.03
   6   6     0.01  -0.02   0.00     0.00  -0.18   0.03    -0.02   0.12  -0.02
   7   6    -0.02   0.13  -0.03    -0.00  -0.05   0.01     0.00   0.06  -0.01
   8   6    -0.02   0.09  -0.02     0.01  -0.07   0.02    -0.01   0.05  -0.01
   9   6     0.06   0.03   0.08    -0.00  -0.01  -0.01     0.02   0.01   0.02
  10   6     0.03  -0.01  -0.02     0.03   0.02   0.00     0.02   0.00  -0.00
  11   1     0.00   0.01  -0.00    -0.03  -0.04   0.00    -0.02  -0.04   0.00
  12   1     0.01   0.02   0.01    -0.02   0.12   0.06    -0.02   0.06   0.03
  13   1     0.01   0.02  -0.02    -0.02   0.10  -0.10    -0.02   0.05  -0.05
  14   1     0.03  -0.18   0.19     0.01  -0.26   0.27    -0.01   0.01  -0.02
  15   1     0.03  -0.23  -0.12     0.02  -0.33  -0.17    -0.01   0.02   0.01
  16   1    -0.03   0.23  -0.24     0.00  -0.10   0.11     0.02  -0.22   0.23
  17   1    -0.04   0.30   0.16     0.01  -0.13  -0.07     0.03  -0.28  -0.15
  18   1    -0.02   0.10  -0.10     0.01  -0.15   0.16     0.01  -0.14   0.16
  19   1    -0.03   0.13   0.06     0.02  -0.19  -0.10     0.01  -0.19  -0.10
  20   1     0.02  -0.16  -0.08    -0.01  -0.07  -0.03     0.04  -0.39  -0.20
  21   1     0.01  -0.13   0.13    -0.01  -0.06   0.06     0.02  -0.30   0.32
  22   1    -0.01   0.07   0.03    -0.04   0.38   0.18     0.03  -0.23  -0.11
  23   1    -0.01   0.06  -0.06    -0.01   0.28  -0.31     0.01  -0.17   0.19
  24   1     0.02  -0.22   0.24    -0.00   0.05  -0.06     0.00  -0.09   0.10
  25   1     0.05  -0.29  -0.14    -0.00   0.07   0.04     0.01  -0.12  -0.06
  26   1     0.03  -0.18  -0.08    -0.02   0.15   0.06     0.02  -0.10  -0.04
  27   1     0.01  -0.12   0.16     0.00   0.11  -0.13     0.00  -0.07   0.08
  28   1    -0.18  -0.16  -0.08     0.02   0.02   0.01    -0.04  -0.03  -0.02
  29   1    -0.04   0.06  -0.23     0.00  -0.00   0.03    -0.01   0.02  -0.05
  30   1    -0.02  -0.02   0.08    -0.03  -0.04   0.06    -0.02  -0.01   0.06
  31   1    -0.08   0.03   0.01    -0.10  -0.02  -0.01    -0.08  -0.01  -0.01
  32   1     0.00  -0.00  -0.00     0.02  -0.01  -0.06    -0.00   0.00  -0.04
                     64                     65                     66
                        a                      a                      a 
 Frequencies --  1503.9863              1504.6420              1507.6581
 Red. masses --     1.7712                 1.5320                 1.6734
 Frc consts  --     0.0000                 0.0000                 0.0000
 IR Inten    --     0.2797                 2.3144                 0.6975
 Raman Activ --     0.0000                 0.0000                 0.0000
 Depolar     --     0.0000                 0.0000                 0.0000
 Atom AN      X      Y      Z        X      Y      Z        X      Y      Z
   1   6     0.01  -0.00  -0.00    -0.00   0.03   0.21     0.07  -0.09   0.02
   2   6     0.02  -0.12   0.02    -0.00   0.01   0.05     0.04  -0.08   0.01
   3   6    -0.00   0.06  -0.01     0.00  -0.00  -0.00    -0.01  -0.01   0.00
   4   6     0.01  -0.15   0.03     0.00  -0.00  -0.00     0.01  -0.03   0.00
   5   6    -0.01   0.06  -0.01    -0.00  -0.00   0.00    -0.00   0.04  -0.01
   6   6     0.01  -0.12   0.02     0.00  -0.00   0.00     0.01  -0.03   0.01
   7   6    -0.01  -0.01   0.00    -0.00  -0.00   0.00    -0.00   0.08  -0.02
   8   6    -0.00   0.00   0.00    -0.00   0.00  -0.00     0.01  -0.07   0.02
   9   6     0.03   0.01   0.02     0.00   0.00   0.00    -0.05  -0.01  -0.02
  10   6     0.07   0.03  -0.00     0.00   0.00   0.00    -0.13  -0.05  -0.00
  11   1    -0.01  -0.02   0.01     0.02  -0.11  -0.71    -0.09  -0.16   0.02
  12   1    -0.02   0.01   0.00     0.45  -0.12  -0.05    -0.11   0.30   0.16
  13   1    -0.02   0.00  -0.01    -0.45   0.09  -0.10    -0.10   0.24  -0.25
  14   1    -0.03   0.20  -0.21     0.02   0.02  -0.01    -0.03   0.09  -0.10
  15   1    -0.03   0.26   0.14    -0.02  -0.02   0.00    -0.03   0.12   0.06
  16   1     0.01  -0.13   0.13     0.02   0.00   0.00     0.00   0.02  -0.02
  17   1     0.01  -0.17  -0.08    -0.02  -0.00   0.00     0.00   0.02   0.01
  18   1    -0.02   0.27  -0.28    -0.00  -0.00  -0.00    -0.01   0.05  -0.05
  19   1    -0.03   0.35   0.17     0.00   0.00   0.00    -0.01   0.06   0.03
  20   1     0.02  -0.16  -0.08     0.00   0.00   0.00     0.01  -0.09  -0.04
  21   1     0.01  -0.12   0.13    -0.00   0.00  -0.00     0.00  -0.07   0.07
  22   1    -0.02   0.27   0.13     0.00   0.00   0.00    -0.01   0.09   0.04
  23   1    -0.00   0.21  -0.22    -0.00   0.00  -0.00    -0.01   0.07  -0.08
  24   1     0.00   0.01  -0.01     0.00   0.00  -0.00     0.01  -0.14   0.16
  25   1     0.01   0.01   0.01    -0.00   0.00   0.00     0.02  -0.19  -0.09
  26   1     0.00  -0.00  -0.00     0.00  -0.00  -0.00    -0.02   0.15   0.06
  27   1     0.00   0.00   0.00    -0.00  -0.00   0.00     0.00   0.10  -0.13
  28   1    -0.05  -0.03  -0.02    -0.00  -0.00  -0.00     0.07   0.04   0.02
  29   1    -0.01   0.02  -0.05    -0.00   0.00  -0.00     0.03  -0.04   0.06
  30   1    -0.07  -0.07   0.18    -0.00   0.00   0.00     0.11   0.11  -0.31
  31   1    -0.25  -0.03  -0.03    -0.00  -0.00  -0.00     0.45   0.08   0.05
  32   1     0.03  -0.02  -0.14    -0.00   0.00  -0.00    -0.04   0.02   0.27
                     67                     68                     69
                        a                      a                      a 
 Frequencies --  1508.1289              1510.8960              2953.0654
 Red. masses --     1.6405                 1.5621                 1.8852
 Frc consts  --     0.0000                 0.0000                 0.0000
 IR Inten    --     1.4673                 2.1042                 0.1667
 Raman Activ --     0.0000                 0.0000                 0.0000
 Depolar     --     0.0000                 0.0000                 0.0000
 Atom AN      X      Y      Z        X      Y      Z        X      Y      Z
   1   6    -0.10   0.13  -0.02     0.00  -0.00   0.00    -0.00   0.00   0.00
   2   6    -0.04   0.07  -0.01     0.00   0.00   0.00     0.00  -0.00  -0.03
   3   6     0.01   0.06  -0.01    -0.00  -0.00   0.00    -0.00   0.01   0.09
   4   6    -0.00  -0.03   0.00     0.00   0.00  -0.00     0.01  -0.03  -0.15
   5   6    -0.00   0.05  -0.01     0.00   0.00  -0.00    -0.01   0.03   0.17
   6   6     0.00  -0.04   0.01    -0.01  -0.00  -0.01     0.01  -0.02  -0.12
   7   6    -0.00   0.06  -0.01     0.01   0.01   0.01    -0.00  -0.00   0.03
   8   6     0.00  -0.05   0.01     0.00   0.00   0.00     0.00  -0.00  -0.00
   9   6    -0.04  -0.01  -0.01    -0.04   0.03  -0.05     0.00   0.00  -0.00
  10   6    -0.09  -0.03  -0.00    -0.05   0.13  -0.16    -0.00  -0.00   0.00
  11   1     0.12   0.22  -0.03    -0.00  -0.00  -0.00     0.00   0.00   0.00
  12   1     0.14  -0.42  -0.22     0.00   0.00   0.00     0.00   0.00  -0.00
  13   1     0.13  -0.33   0.35    -0.00   0.00  -0.00    -0.00  -0.00  -0.00
  14   1     0.03  -0.05   0.06     0.00  -0.00   0.00    -0.01   0.05   0.05
  15   1     0.03  -0.07  -0.04    -0.00  -0.00  -0.00     0.00  -0.03   0.06
  16   1    -0.00  -0.11   0.11    -0.00   0.00  -0.00     0.01  -0.17  -0.15
  17   1     0.01  -0.14  -0.07    -0.00   0.00   0.00    -0.01   0.11  -0.20
  18   1    -0.00   0.06  -0.06    -0.00  -0.00   0.00    -0.03   0.28   0.25
  19   1    -0.00   0.08   0.04    -0.00  -0.00  -0.00     0.01  -0.17   0.33
  20   1     0.01  -0.11  -0.05     0.00  -0.00  -0.00    -0.01   0.19  -0.37
  21   1     0.00  -0.09   0.09     0.00   0.00   0.00     0.03  -0.30  -0.28
  22   1    -0.01   0.09   0.04     0.00  -0.01  -0.01    -0.00  -0.13   0.25
  23   1    -0.00   0.07  -0.08     0.01  -0.01   0.01    -0.03   0.22   0.20
  24   1     0.01  -0.11   0.11    -0.05   0.00  -0.01     0.01  -0.05  -0.04
  25   1     0.01  -0.14  -0.07    -0.01  -0.00   0.00    -0.00   0.05  -0.10
  26   1    -0.01   0.11   0.05     0.02  -0.02  -0.01    -0.00  -0.01   0.01
  27   1     0.00   0.07  -0.09    -0.00  -0.01   0.01    -0.00   0.01   0.00
  28   1     0.04   0.02   0.01     0.06   0.02  -0.00    -0.00  -0.00   0.01
  29   1     0.02  -0.03   0.04     0.02  -0.02   0.07    -0.01  -0.01  -0.00
  30   1     0.07   0.07  -0.20    -0.25  -0.52   0.13    -0.00   0.00  -0.00
  31   1     0.30   0.05   0.04     0.02   0.33   0.13     0.00   0.00  -0.00
  32   1    -0.02   0.01   0.18     0.43  -0.37   0.38     0.00   0.00   0.00
                     70                     71                     72
                        a                      a                      a 
 Frequencies --  2955.0898              2956.9125              2959.9576
 Red. masses --     1.9099                 1.9180                 1.9693
 Frc consts  --     0.0000                 0.0000                 0.0000
 IR Inten    --     1.2713                 8.6105                 0.9437
 Raman Activ --     0.0000                 0.0000                 0.0000
 Depolar     --     0.0000                 0.0000                 0.0000
 Atom AN      X      Y      Z        X      Y      Z        X      Y      Z
   1   6    -0.00   0.00   0.00    -0.00   0.00   0.00    -0.00   0.00   0.01
   2   6     0.00  -0.01  -0.08     0.00  -0.01  -0.06     0.00  -0.02  -0.13
   3   6    -0.00   0.02   0.16    -0.00   0.01   0.09    -0.00   0.01   0.10
   4   6     0.00  -0.02  -0.10    -0.00  -0.00   0.00    -0.00   0.02   0.12
   5   6     0.00  -0.01  -0.06     0.00  -0.01  -0.08     0.00  -0.01  -0.08
   6   6    -0.01   0.03   0.15    -0.00   0.01   0.02     0.01  -0.03  -0.13
   7   6     0.00   0.00  -0.10    -0.01  -0.00   0.12    -0.00  -0.01   0.06
   8   6    -0.01   0.02   0.06     0.03  -0.07  -0.21    -0.01   0.04   0.11
   9   6    -0.01  -0.00  -0.00     0.01  -0.01   0.03     0.02   0.04  -0.05
  10   6     0.00   0.00  -0.00     0.00  -0.00   0.00    -0.00  -0.00   0.00
  11   1     0.00  -0.00   0.00     0.00   0.00   0.00     0.00   0.00   0.00
  12   1     0.00   0.01  -0.01     0.00   0.01  -0.01     0.00   0.01  -0.02
  13   1    -0.00  -0.01  -0.01    -0.00  -0.01  -0.01     0.00  -0.02  -0.02
  14   1    -0.01   0.14   0.13    -0.01   0.11   0.10    -0.02   0.23   0.22
  15   1     0.01  -0.09   0.17     0.00  -0.07   0.12     0.01  -0.14   0.27
  16   1     0.03  -0.27  -0.25     0.01  -0.15  -0.14     0.02  -0.15  -0.14
  17   1    -0.01   0.18  -0.34    -0.01   0.10  -0.18    -0.01   0.11  -0.20
  18   1    -0.02   0.18   0.16     0.00   0.00   0.00     0.02  -0.21  -0.19
  19   1     0.00  -0.11   0.20    -0.00   0.00  -0.00    -0.01   0.12  -0.23
  20   1    -0.00  -0.07   0.12     0.00  -0.09   0.17     0.00  -0.09   0.17
  21   1    -0.01   0.11   0.10    -0.01   0.12   0.11    -0.01   0.11   0.10
  22   1    -0.00   0.16  -0.31     0.00   0.01  -0.01     0.00  -0.13   0.25
  23   1     0.03  -0.27  -0.24     0.00  -0.05  -0.05    -0.03   0.24   0.22
  24   1    -0.02   0.12   0.10     0.02  -0.16  -0.13     0.01  -0.04  -0.03
  25   1    -0.00  -0.13   0.27     0.00   0.16  -0.32     0.00   0.08  -0.18
  26   1     0.01   0.06  -0.12    -0.02  -0.19   0.41     0.01   0.09  -0.21
  27   1     0.02  -0.12  -0.10    -0.08   0.44   0.35     0.04  -0.22  -0.18
  28   1    -0.00  -0.01   0.01     0.01   0.06  -0.13    -0.01  -0.09   0.19
  29   1     0.02   0.02   0.00    -0.03  -0.03   0.00    -0.07  -0.07  -0.01
  30   1     0.00  -0.00   0.00    -0.00   0.00  -0.00     0.00  -0.00   0.00
  31   1     0.00  -0.00   0.00    -0.00   0.00  -0.00     0.00   0.00  -0.01
  32   1    -0.00  -0.00  -0.00    -0.00  -0.00   0.00     0.01   0.01   0.00
                     73                     74                     75
                        a                      a                      a 
 Frequencies --  2962.3203              2965.9575              2971.3144
 Red. masses --     1.9123                 1.9241                 1.8301
 Frc consts  --     0.0000                 0.0000                 0.0000
 IR Inten    --    20.8870                 6.1396                 1.7463
 Raman Activ --     0.0000                 0.0000                 0.0000
 Depolar     --     0.0000                 0.0000                 0.0000
 Atom AN      X      Y      Z        X      Y      Z        X      Y      Z
   1   6     0.00  -0.00  -0.00     0.00  -0.00  -0.01     0.00   0.00   0.02
   2   6    -0.00   0.01   0.05    -0.00   0.03   0.15     0.00  -0.02  -0.13
   3   6     0.00  -0.00  -0.01    -0.00   0.00   0.04     0.00  -0.01  -0.11
   4   6     0.00  -0.01  -0.05     0.00  -0.03  -0.10     0.00  -0.04  -0.02
   5   6     0.00  -0.00  -0.01     0.00  -0.00  -0.14    -0.01   0.04   0.06
   6   6    -0.00   0.02   0.04     0.00  -0.01  -0.02    -0.01   0.05   0.11
   7   6    -0.00  -0.02   0.04    -0.00  -0.03   0.13    -0.00  -0.06   0.11
   8   6     0.01  -0.05   0.01    -0.01   0.07   0.06    -0.01   0.07   0.02
   9   6     0.14   0.19  -0.12    -0.04  -0.03  -0.01    -0.02  -0.00  -0.04
  10   6    -0.01  -0.01   0.01     0.00   0.00  -0.00     0.00  -0.00   0.00
  11   1    -0.00   0.00  -0.00    -0.00  -0.00  -0.00    -0.00   0.00   0.00
  12   1    -0.00  -0.01   0.01     0.00  -0.02   0.04    -0.00   0.02  -0.04
  13   1    -0.00   0.01   0.01    -0.00   0.03   0.03     0.00  -0.03  -0.03
  14   1     0.01  -0.08  -0.08     0.02  -0.26  -0.25    -0.02   0.21   0.20
  15   1    -0.00   0.05  -0.10    -0.01   0.16  -0.29     0.01  -0.14   0.27
  16   1    -0.00   0.02   0.02     0.00  -0.05  -0.05    -0.01   0.14   0.14
  17   1     0.00  -0.02   0.03    -0.00   0.04  -0.08     0.01  -0.12   0.24
  18   1    -0.01   0.09   0.08    -0.02   0.19   0.18    -0.01   0.13   0.13
  19   1     0.00  -0.04   0.08     0.00  -0.10   0.19    -0.00   0.03  -0.07
  20   1     0.00  -0.01   0.02     0.00  -0.16   0.33     0.00   0.03  -0.04
  21   1    -0.00   0.02   0.02    -0.02   0.17   0.15     0.02  -0.18  -0.18
  22   1    -0.00   0.02  -0.04     0.00  -0.02   0.03     0.00   0.08  -0.15
  23   1     0.01  -0.11  -0.10    -0.01   0.05   0.05     0.03  -0.25  -0.23
  24   1    -0.00  -0.01  -0.00     0.01  -0.08  -0.05    -0.00   0.03   0.05
  25   1    -0.00   0.06  -0.13     0.00   0.18  -0.40     0.00   0.20  -0.44
  26   1     0.01   0.07  -0.19    -0.00   0.01   0.00    -0.01  -0.04   0.13
  27   1    -0.03   0.14   0.13     0.05  -0.26  -0.22     0.04  -0.21  -0.19
  28   1    -0.02  -0.20   0.48    -0.01  -0.02   0.02    -0.02  -0.07   0.14
  29   1    -0.48  -0.48  -0.03     0.14   0.14   0.00     0.08   0.08  -0.00
  30   1     0.01  -0.01   0.01    -0.01   0.00  -0.00    -0.01   0.00  -0.00
  31   1    -0.00   0.02  -0.05     0.00  -0.00   0.01     0.00   0.00  -0.00
  32   1     0.04   0.05   0.00    -0.01  -0.01  -0.00    -0.00  -0.01   0.00
                     76                     77                     78
                        a                      a                      a 
 Frequencies --  2972.6011              2973.6944              2975.7616
 Red. masses --     1.4750                 1.4993                 1.4741
 Frc consts  --     0.0000                 0.0000                 0.0000
 IR Inten    --     0.7440                 0.0741                 7.6608
 Raman Activ --     0.0000                 0.0000                 0.0000
 Depolar     --     0.0000                 0.0000                 0.0000
 Atom AN      X      Y      Z        X      Y      Z        X      Y      Z
   1   6    -0.00   0.00   0.00     0.00  -0.00  -0.00    -0.00   0.01  -0.00
   2   6    -0.00   0.02  -0.01    -0.01   0.07   0.01    -0.00   0.03  -0.01
   3   6     0.01  -0.10   0.01     0.00  -0.03   0.03     0.01  -0.13   0.01
   4   6    -0.01   0.05  -0.01     0.01  -0.13   0.04    -0.01   0.06  -0.01
   5   6    -0.01   0.10  -0.00    -0.01   0.10  -0.02     0.00  -0.02   0.01
   6   6     0.01  -0.11   0.04    -0.00   0.04  -0.04    -0.01   0.09  -0.00
   7   6     0.00  -0.00  -0.01     0.00  -0.01  -0.04    -0.00  -0.01   0.03
   8   6     0.00   0.03  -0.03     0.00  -0.04   0.01     0.00  -0.06   0.04
   9   6     0.02   0.03  -0.01     0.00  -0.01   0.03    -0.04  -0.04  -0.01
  10   6    -0.00  -0.00   0.00     0.00   0.00  -0.00     0.01   0.00  -0.00
  11   1     0.01  -0.00   0.00    -0.01   0.01  -0.00     0.00  -0.00   0.00
  12   1     0.00  -0.00   0.00     0.00   0.00  -0.01     0.00  -0.00   0.01
  13   1     0.00  -0.01  -0.01     0.00   0.02   0.02     0.00  -0.01  -0.01
  14   1     0.01  -0.04  -0.04     0.02  -0.19  -0.20     0.01  -0.08  -0.09
  15   1     0.00  -0.04   0.08     0.00  -0.07   0.17     0.00  -0.06   0.13
  16   1    -0.02   0.24   0.26    -0.00   0.02   0.03    -0.03   0.32   0.35
  17   1    -0.01   0.13  -0.30    -0.01   0.06  -0.13    -0.01   0.18  -0.40
  18   1     0.01  -0.13  -0.14    -0.03   0.29   0.31     0.02  -0.15  -0.16
  19   1    -0.00  -0.07   0.16    -0.01   0.21  -0.47     0.00  -0.09   0.21
  20   1     0.00  -0.12   0.29     0.00  -0.14   0.33    -0.00   0.04  -0.10
  21   1     0.03  -0.26  -0.28     0.03  -0.23  -0.25    -0.01   0.04   0.05
  22   1     0.00   0.18  -0.42    -0.00  -0.09   0.20    -0.00  -0.11   0.26
  23   1    -0.03   0.26   0.27     0.01  -0.06  -0.07     0.03  -0.24  -0.25
  24   1    -0.00   0.02   0.02    -0.01   0.07   0.06     0.00  -0.02  -0.01
  25   1     0.00  -0.02   0.04    -0.00  -0.05   0.09     0.00   0.05  -0.11
  26   1    -0.01  -0.06   0.17     0.01   0.04  -0.12     0.01   0.10  -0.27
  27   1     0.01  -0.05  -0.05    -0.02   0.10   0.09    -0.02   0.12   0.11
  28   1     0.00  -0.01   0.03     0.01   0.04  -0.10    -0.01  -0.03   0.05
  29   1    -0.09  -0.09  -0.00    -0.01  -0.01   0.00     0.17   0.17   0.00
  30   1     0.00  -0.00   0.00     0.00  -0.00   0.00    -0.01   0.00  -0.00
  31   1    -0.00   0.00  -0.01    -0.00  -0.00   0.01     0.00  -0.00   0.01
  32   1     0.01   0.01   0.00    -0.00  -0.00  -0.00    -0.01  -0.02  -0.00
                     79                     80                     81
                        a                      a                      a 
 Frequencies --  2977.7994              2979.0913              2979.9284
 Red. masses --     1.9001                 1.5303                 1.4976
 Frc consts  --     0.0000                 0.0000                 0.0000
 IR Inten    --   115.7158                16.7891                25.3563
 Raman Activ --     0.0000                 0.0000                 0.0000
 Depolar     --     0.0000                 0.0000                 0.0000
 Atom AN      X      Y      Z        X      Y      Z        X      Y      Z
   1   6     0.00  -0.00  -0.02    -0.01   0.01  -0.01    -0.00   0.01  -0.00
   2   6    -0.00   0.03   0.11     0.01  -0.12   0.05     0.00  -0.06   0.01
   3   6    -0.00   0.01   0.14    -0.00   0.04   0.03     0.00  -0.03  -0.00
   4   6    -0.00   0.02   0.14    -0.01   0.04   0.03    -0.00   0.02  -0.01
   5   6    -0.00  -0.00   0.11    -0.01   0.11   0.02    -0.00   0.02  -0.01
   6   6    -0.01   0.04   0.05    -0.00   0.02   0.02    -0.00   0.06  -0.02
   7   6     0.00  -0.04  -0.01     0.00  -0.03   0.01     0.00  -0.05  -0.01
   8   6    -0.00   0.07  -0.05     0.00  -0.08   0.03    -0.00   0.05   0.03
   9   6     0.01   0.02  -0.04    -0.04  -0.04  -0.02     0.08   0.03   0.14
  10   6     0.00  -0.00   0.01     0.01   0.00  -0.00    -0.02   0.01  -0.01
  11   1    -0.00   0.00  -0.00     0.03  -0.02   0.00     0.02  -0.01   0.00
  12   1     0.00  -0.03   0.05    -0.00  -0.02   0.04    -0.00  -0.01   0.02
  13   1    -0.00   0.04   0.04    -0.00  -0.01  -0.01     0.00  -0.02  -0.02
  14   1     0.02  -0.21  -0.20    -0.02   0.24   0.27    -0.01   0.13   0.14
  15   1    -0.01   0.09  -0.17    -0.01   0.21  -0.46    -0.00   0.07  -0.17
  16   1     0.02  -0.19  -0.18     0.01  -0.14  -0.15    -0.01   0.07   0.08
  17   1    -0.01   0.16  -0.30     0.00  -0.01   0.04    -0.00   0.03  -0.07
  18   1     0.02  -0.21  -0.20     0.02  -0.14  -0.14     0.01  -0.05  -0.05
  19   1    -0.01   0.14  -0.28     0.00  -0.00   0.02     0.00  -0.04   0.10
  20   1    -0.00   0.14  -0.28     0.00  -0.10   0.24     0.00  -0.03   0.08
  21   1     0.01  -0.13  -0.11     0.03  -0.29  -0.31     0.00  -0.03  -0.04
  22   1     0.00   0.02  -0.02    -0.00   0.00   0.00    -0.00  -0.10   0.23
  23   1     0.02  -0.17  -0.16     0.01  -0.08  -0.08     0.02  -0.14  -0.15
  24   1    -0.02   0.12   0.12    -0.01   0.06   0.06    -0.02   0.15   0.15
  25   1     0.00   0.04  -0.09     0.00   0.04  -0.09     0.00   0.04  -0.10
  26   1    -0.02  -0.12   0.33     0.01   0.10  -0.27    -0.00  -0.01   0.06
  27   1     0.03  -0.15  -0.15    -0.03   0.17   0.16     0.03  -0.18  -0.15
  28   1    -0.01  -0.07   0.15    -0.01  -0.05   0.08     0.06   0.26  -0.53
  29   1    -0.01  -0.01  -0.01     0.17   0.17   0.00    -0.35  -0.36   0.01
  30   1    -0.01   0.00  -0.00    -0.01   0.01  -0.00     0.05  -0.02   0.01
  31   1     0.00   0.01  -0.03     0.00  -0.00   0.01    -0.01  -0.02   0.05
  32   1     0.00  -0.00   0.00    -0.02  -0.02   0.00     0.01   0.02  -0.00
                     82                     83                     84
                        a                      a                      a 
 Frequencies --  2983.3945              2987.5494              2993.5485
 Red. masses --     1.7502                 1.6034                 1.5828
 Frc consts  --     0.0000                 0.0000                 0.0000
 IR Inten    --   171.7316               112.1124               197.7944
 Raman Activ --     0.0000                 0.0000                 0.0000
 Depolar     --     0.0000                 0.0000                 0.0000
 Atom AN      X      Y      Z        X      Y      Z        X      Y      Z
   1   6     0.01  -0.01  -0.00    -0.01   0.02  -0.01    -0.01   0.01  -0.00
   2   6    -0.01   0.08   0.01     0.01  -0.09   0.03     0.00  -0.03   0.00
   3   6    -0.01   0.06   0.03     0.01  -0.09   0.03     0.00  -0.04   0.00
   4   6    -0.00   0.03   0.05     0.01  -0.09   0.04     0.00  -0.05   0.00
   5   6    -0.00  -0.00   0.07     0.00  -0.05   0.04     0.01  -0.07  -0.00
   6   6    -0.00  -0.04   0.09    -0.00  -0.03   0.05     0.01  -0.08  -0.01
   7   6    -0.00  -0.00   0.11    -0.01   0.09   0.09     0.02  -0.16  -0.07
   8   6    -0.00  -0.06   0.11    -0.00   0.01   0.04     0.00  -0.06  -0.01
   9   6     0.01  -0.03   0.09     0.01  -0.00   0.02    -0.01  -0.02   0.01
  10   6    -0.01   0.01  -0.02    -0.01  -0.00  -0.01     0.02   0.01  -0.00
  11   1    -0.03   0.01  -0.00     0.05  -0.03   0.00     0.02  -0.01   0.00
  12   1     0.00   0.00  -0.01    -0.00  -0.02   0.06    -0.00  -0.01   0.02
  13   1    -0.00   0.03   0.03     0.00  -0.03  -0.03     0.00  -0.02  -0.02
  14   1     0.02  -0.20  -0.22    -0.02   0.20   0.22    -0.01   0.07   0.07
  15   1     0.00  -0.07   0.17    -0.01   0.14  -0.31    -0.00   0.04  -0.08
  16   1     0.02  -0.17  -0.17    -0.02   0.17   0.19    -0.01   0.09   0.10
  17   1     0.00  -0.02   0.06    -0.01   0.12  -0.28    -0.00   0.05  -0.11
  18   1     0.01  -0.13  -0.13    -0.02   0.18   0.20    -0.01   0.13   0.13
  19   1    -0.00   0.03  -0.04    -0.00   0.14  -0.33    -0.00   0.06  -0.14
  20   1    -0.00   0.08  -0.16    -0.00   0.10  -0.21    -0.00   0.07  -0.18
  21   1     0.01  -0.08  -0.07    -0.01   0.07   0.08    -0.02   0.18   0.19
  22   1     0.00   0.16  -0.35     0.00   0.09  -0.20     0.00   0.06  -0.17
  23   1    -0.00   0.01   0.02    -0.00   0.01   0.02    -0.03   0.20   0.20
  24   1     0.02  -0.13  -0.11     0.04  -0.35  -0.33    -0.06   0.49   0.49
  25   1     0.00   0.13  -0.28    -0.00   0.00   0.03     0.00   0.08  -0.25
  26   1     0.02   0.17  -0.45     0.00   0.04  -0.09     0.01   0.03  -0.11
  27   1    -0.01   0.05   0.07     0.01  -0.06  -0.05    -0.03   0.15   0.14
  28   1     0.03   0.16  -0.34     0.01   0.03  -0.06    -0.00   0.01  -0.02
  29   1    -0.06  -0.07   0.01    -0.03  -0.03   0.00     0.05   0.05   0.00
  30   1     0.03  -0.01   0.01     0.01  -0.01   0.00    -0.01   0.01  -0.00
  31   1    -0.00  -0.03   0.07    -0.00  -0.01   0.02     0.00  -0.00   0.01
  32   1     0.00   0.01  -0.00     0.02   0.03  -0.00    -0.04  -0.05   0.00
                     85                     86                     87
                        a                      a                      a 
 Frequencies --  3030.2582              3031.1433              3032.8229
 Red. masses --     1.9585                 1.9311                 1.9121
 Frc consts  --     0.0000                 0.0000                 0.0000
 IR Inten    --    56.6643                66.0885                62.4601
 Raman Activ --     0.0000                 0.0000                 0.0000
 Depolar     --     0.0000                 0.0000                 0.0000
 Atom AN      X      Y      Z        X      Y      Z        X      Y      Z
   1   6     0.00  -0.03  -0.29    -0.00  -0.00  -0.02     0.15  -0.24   0.03
   2   6     0.00  -0.01  -0.05     0.00  -0.00  -0.00     0.01  -0.03   0.00
   3   6     0.00  -0.00  -0.01     0.00  -0.00  -0.00     0.00  -0.01   0.00
   4   6     0.00  -0.00  -0.01     0.00   0.00  -0.00     0.00  -0.00   0.00
   5   6     0.00  -0.00  -0.00     0.00  -0.00  -0.00     0.00  -0.00   0.00
   6   6     0.00  -0.00  -0.00     0.00   0.00  -0.00     0.00  -0.00   0.00
   7   6     0.00  -0.00  -0.00     0.00  -0.00  -0.01     0.00  -0.00   0.00
   8   6    -0.00  -0.00   0.00     0.00   0.00  -0.01     0.00  -0.00   0.00
   9   6     0.00  -0.00   0.00    -0.01   0.01  -0.03     0.00   0.00  -0.00
  10   6     0.01  -0.01   0.01    -0.13   0.13  -0.22     0.01   0.00  -0.00
  11   1     0.02  -0.02  -0.04     0.00  -0.00  -0.00    -0.54   0.31  -0.06
  12   1     0.02  -0.33   0.62     0.00  -0.02   0.03     0.01   0.18  -0.43
  13   1    -0.04   0.46   0.44    -0.00   0.03   0.03    -0.01   0.35   0.40
  14   1    -0.01   0.06   0.06    -0.00   0.00   0.00    -0.01   0.06   0.06
  15   1     0.00  -0.04   0.08     0.00  -0.00   0.01    -0.00   0.03  -0.07
  16   1    -0.00   0.02   0.02    -0.00   0.00   0.00    -0.01   0.03   0.04
  17   1     0.00  -0.02   0.03     0.00  -0.00   0.00    -0.00   0.02  -0.04
  18   1    -0.00   0.01   0.01    -0.00   0.00   0.00    -0.00   0.01   0.01
  19   1    -0.00  -0.01   0.01     0.00  -0.00   0.00     0.00   0.01  -0.01
  20   1     0.00  -0.00   0.01    -0.00  -0.00   0.00    -0.00   0.00  -0.01
  21   1    -0.00   0.00   0.00    -0.00   0.00   0.00    -0.00   0.01   0.01
  22   1    -0.00  -0.00   0.00     0.00  -0.01   0.01     0.00   0.00  -0.00
  23   1    -0.00   0.00   0.00    -0.00   0.00   0.00    -0.00   0.00   0.00
  24   1    -0.00   0.00   0.00    -0.00   0.01   0.01    -0.00   0.00   0.00
  25   1     0.00  -0.00   0.00    -0.00  -0.01   0.02    -0.00   0.00  -0.00
  26   1    -0.00   0.00  -0.00    -0.00  -0.02   0.05     0.00   0.00  -0.00
  27   1     0.00  -0.00  -0.00    -0.00   0.01   0.01    -0.00   0.00   0.00
  28   1     0.00   0.00  -0.00    -0.01  -0.05   0.10    -0.00  -0.00   0.00
  29   1    -0.00  -0.00   0.00     0.02   0.02  -0.00    -0.00  -0.00  -0.00
  30   1    -0.03   0.01  -0.01     0.50  -0.18   0.11    -0.03   0.01  -0.01
  31   1     0.00   0.02  -0.04    -0.05  -0.31   0.71     0.00  -0.01   0.02
  32   1    -0.00  -0.00   0.00     0.00   0.04  -0.03    -0.01  -0.01  -0.00
                     88                     89                     90
                        a                      a                      a 
 Frequencies --  3034.0820              3038.2374              3046.8771
 Red. masses --     1.7080                 1.2798                 1.5094
 Frc consts  --     0.0000                 0.0000                 0.0000
 IR Inten    --    49.8414                31.4353                37.3742
 Raman Activ --     0.0000                 0.0000                 0.0000
 Depolar     --     0.0000                 0.0000                 0.0000
 Atom AN      X      Y      Z        X      Y      Z        X      Y      Z
   1   6     0.00  -0.01   0.00    -0.15  -0.04  -0.00     0.00   0.00   0.00
   2   6     0.00  -0.00   0.00    -0.01  -0.00   0.00    -0.00   0.00   0.00
   3   6     0.00  -0.00   0.00     0.00  -0.00   0.00    -0.00   0.00   0.00
   4   6     0.00  -0.00   0.00    -0.00   0.00  -0.00    -0.00   0.00   0.00
   5   6     0.00  -0.00   0.00     0.00  -0.00   0.00    -0.00   0.00   0.00
   6   6     0.00  -0.00   0.00    -0.00   0.00  -0.00    -0.00   0.00   0.00
   7   6     0.00  -0.01  -0.00     0.00  -0.00   0.00    -0.00   0.01   0.01
   8   6     0.00  -0.00   0.00    -0.00   0.00  -0.00     0.00   0.00   0.00
   9   6    -0.02  -0.02   0.01     0.00   0.00   0.00     0.01   0.02  -0.00
  10   6    -0.23  -0.05   0.08     0.01   0.00  -0.00     0.09   0.19   0.02
  11   1    -0.01   0.00  -0.00     0.61  -0.38   0.07    -0.00   0.00  -0.00
  12   1    -0.00   0.01  -0.03    -0.03   0.20  -0.42     0.00  -0.00   0.00
  13   1    -0.00   0.02   0.02    -0.04   0.33   0.34     0.00  -0.00  -0.00
  14   1    -0.00   0.00   0.00    -0.00   0.00   0.00     0.00  -0.00  -0.00
  15   1    -0.00   0.00  -0.00    -0.00   0.00  -0.00     0.00  -0.00   0.00
  16   1    -0.00   0.00   0.00    -0.00   0.01   0.01     0.00  -0.00  -0.00
  17   1    -0.00   0.00  -0.00    -0.00   0.00  -0.01     0.00  -0.00   0.00
  18   1    -0.00   0.00   0.00     0.00  -0.00  -0.00     0.00  -0.00  -0.00
  19   1    -0.00   0.00  -0.00     0.00  -0.00   0.00     0.00   0.00  -0.00
  20   1     0.00   0.00  -0.00     0.00   0.00  -0.00    -0.00  -0.00   0.00
  21   1    -0.00   0.00   0.00    -0.00   0.00   0.00     0.00  -0.00  -0.00
  22   1     0.00   0.00  -0.00     0.00  -0.00   0.00     0.00   0.00  -0.00
  23   1    -0.00   0.00   0.00     0.00  -0.00  -0.00     0.00  -0.01  -0.01
  24   1    -0.00   0.02   0.02    -0.00   0.00   0.00     0.01  -0.04  -0.04
  25   1     0.00   0.01  -0.01    -0.00   0.00  -0.00    -0.00  -0.00   0.01
  26   1     0.00   0.00  -0.01    -0.00  -0.00   0.00     0.00   0.00   0.00
  27   1    -0.00   0.01   0.01     0.00  -0.00  -0.00     0.00  -0.01  -0.01
  28   1     0.00   0.01  -0.02     0.00   0.00  -0.00     0.00  -0.00   0.01
  29   1     0.05   0.05   0.00    -0.00  -0.00  -0.00    -0.05  -0.04   0.00
  30   1     0.66  -0.28   0.20    -0.02   0.01  -0.00     0.26  -0.07   0.07
  31   1    -0.01   0.22  -0.49     0.00  -0.00   0.01     0.02   0.09  -0.14
  32   1     0.17   0.22   0.01    -0.01  -0.01   0.00    -0.61  -0.68   0.01
