 Entering Gaussian System
 *********************************************
 Gaussian 98:
 frequency output generated by the xtb code
 *********************************************
                         Standard orientation:
 --------------------------------------------------------------------
  Center     Atomic     Atomic              Coordinates (Angstroms)
  Number     Number      Type              X           Y           Z
 --------------------------------------------------------------------
    1          6             0        5.555060    0.703770   -0.002018
    2          6             0        4.368275   -0.243769    0.124652
    3          6             0        3.037103    0.487813   -0.027582
    4          6             0        1.844084   -0.456967    0.093174
    5          6             0        0.515277    0.272108   -0.087630
    6          6             0       -0.680011   -0.671634    0.018732
    7          6             0       -2.002993    0.058087   -0.201039
    8          6             0       -3.199269   -0.885326   -0.098178
    9          6             0       -4.531200   -0.213298   -0.433921
   10          6             0       -4.940191    0.851707    0.577285
   11          1             0        6.491944    0.162078    0.105291
   12          1             0        5.550138    1.192359   -0.974059
   13          1             0        5.512677    1.472658    0.766448
   14          1             0        4.440999   -1.020369   -0.640272
   15          1             0        4.399214   -0.736671    1.099078
   16          1             0        2.962110    1.264186    0.737621
   17          1             0        3.007680    0.982099   -1.001699
   18          1             0        1.929019   -1.242772   -0.661389
   19          1             0        1.862004   -0.939353    1.073416
   20          1             0        0.502659    0.758670   -1.065994
   21          1             0        0.426417    1.054677    0.669735
   22          1             0       -0.684481   -1.140677    1.005563
   23          1             0       -0.577701   -1.467594   -0.722987
   24          1             0       -2.094021    0.853574    0.540260
   25          1             0       -1.996120    0.523440   -1.189802
   26          1             0       -3.248081   -1.298925    0.911937
   27          1             0       -3.046372   -1.719534   -0.787823
   28          1             0       -4.465750    0.236834   -1.427234
   29          1             0       -5.308515   -0.980477   -0.470236
   30          1             0       -5.922228    1.248817    0.329948
   31          1             0       -4.983732    0.428646    1.578663
   32          1             0       -4.233701    1.677461    0.582179
 --------------------------------------------------------------------
     1 basis functions        1 primitive gaussians
     1 alpha electrons        1 beta electrons
 
 Harmonic frequencies (cm**-1), IR intensities (KM/Mole),
 Raman scattering activities (A**4/amu), Raman depolarization ratios,
 reduced masses (AMU), force constants (mDyne/A) and normal coordinates:
                      1                      2                      3
                        a                      a                      a 
 Frequencies --    31.3283                37.9708                57.7375
 Red. masses --    99.0000                99.0000                99.0000
 Frc consts  --    99.0000                99.0000                99.0000
 IR Inten    --    99.0000                99.0000                99.0000
 Raman Activ --     0.0000                 0.0000                 0.0000
 Depolar     --     0.0000                 0.0000                 0.0000
 Atom AN      X      Y      Z        X      Y      Z        X      Y      Z
   1   6    -0.01   0.04   0.28    -0.06   0.17   0.31     0.14  -0.34   0.21
   2   6    -0.02   0.05   0.30     0.00   0.03  -0.19    -0.03  -0.16  -0.08
   3   6    -0.00  -0.02  -0.17    -0.04   0.00   0.06     0.09   0.08  -0.05
   4   6    -0.01  -0.01  -0.11     0.01  -0.10  -0.27    -0.03   0.21  -0.15
   5   6     0.00  -0.06  -0.41    -0.02  -0.10  -0.06     0.01   0.30  -0.13
   6   6    -0.00  -0.02  -0.23    -0.00  -0.13  -0.10     0.03   0.29   0.00
   7   6    -0.00  -0.03  -0.26    -0.01  -0.11   0.02    -0.04   0.16  -0.02
   8   6    -0.01   0.01  -0.01    -0.03  -0.05   0.25     0.09   0.01   0.17
   9   6    -0.06   0.04   0.22    -0.02  -0.08   0.15    -0.03  -0.27   0.08
  10   6     0.12   0.01   0.33     0.16   0.31  -0.19    -0.22  -0.21  -0.05
  11   1    -0.01   0.03   0.18    -0.01   0.06   0.03     0.01  -0.15   0.05
  12   1     0.05  -0.07   0.04    -0.01   0.18   0.16     0.09  -0.04   0.09
  13   1    -0.06   0.07   0.02    -0.04  -0.06   0.19     0.07  -0.15   0.11
  14   1     0.04  -0.05   0.15     0.03   0.11  -0.16    -0.03  -0.01  -0.07
  15   1    -0.06   0.09   0.13    -0.00  -0.12  -0.12    -0.06  -0.10  -0.05
  16   1    -0.05   0.06  -0.12    -0.02  -0.08   0.10     0.05   0.00   0.01
  17   1     0.05  -0.09  -0.09    -0.02   0.10   0.07     0.05   0.05   0.00
  18   1     0.02  -0.05   0.02     0.02   0.04  -0.15    -0.02   0.07  -0.06
  19   1    -0.03   0.06   0.00     0.00  -0.12  -0.12    -0.03   0.04  -0.05
  20   1     0.02  -0.09  -0.15    -0.03   0.02   0.01    -0.01   0.07  -0.04
  21   1    -0.01   0.04  -0.18     0.01  -0.06   0.02     0.02   0.10  -0.05
  22   1     0.01   0.04  -0.05     0.01  -0.06  -0.04     0.02   0.11   0.01
  23   1    -0.01  -0.04  -0.03    -0.01  -0.02  -0.05     0.01   0.06   0.02
  24   1     0.02   0.03  -0.11     0.03  -0.01  -0.01    -0.03   0.07  -0.04
  25   1    -0.02  -0.06  -0.10    -0.04  -0.05  -0.01    -0.04   0.01  -0.03
  26   1     0.05   0.01   0.00    -0.00   0.05   0.10     0.05   0.05   0.07
  27   1    -0.05  -0.01  -0.00    -0.02  -0.06   0.12     0.06  -0.03   0.09
  28   1    -0.06   0.02   0.07    -0.03  -0.13  -0.00    -0.03  -0.11   0.01
  29   1    -0.02   0.02   0.09    -0.02  -0.01   0.15     0.03  -0.12   0.05
  30   1     0.03   0.01   0.14     0.04   0.07  -0.06    -0.08  -0.12  -0.03
  31   1     0.08  -0.01   0.09     0.08   0.20  -0.01    -0.05  -0.03  -0.00
  32   1     0.04  -0.00   0.07     0.05   0.08  -0.17    -0.10  -0.03  -0.04
                      4                      5                      6
                        a                      a                      a 
 Frequencies --    85.4667                81.7384               136.5102
 Red. masses --    99.0000                99.0000                99.0000
 Frc consts  --    99.0000                99.0000                99.0000
 IR Inten    --    99.0000                99.0000                99.0000
 Raman Activ --     0.0000                 0.0000                 0.0000
 Depolar     --     0.0000                 0.0000                 0.0000
 Atom AN      X      Y      Z        X      Y      Z        X      Y      Z
   1   6     0.02  -0.12  -0.11    -0.01   0.13   0.23     0.01  -0.01  -0.04
   2   6    -0.05   0.03   0.29     0.06   0.02   0.01     0.00  -0.01  -0.07
   3   6    -0.00   0.05  -0.05     0.03  -0.11  -0.39     0.00   0.04   0.20
   4   6    -0.03   0.06  -0.15     0.05  -0.12  -0.25    -0.00   0.06   0.28
   5   6    -0.04   0.11   0.12     0.04  -0.10  -0.07     0.02  -0.08  -0.45
   6   6     0.01  -0.01  -0.32     0.01  -0.03   0.18     0.02  -0.05  -0.23
   7   6    -0.06   0.04   0.28     0.02   0.07   0.40    -0.02   0.04   0.34
   8   6     0.02  -0.08   0.02    -0.02   0.07   0.11    -0.01  -0.01   0.05
   9   6    -0.02  -0.14   0.06     0.07   0.11  -0.14     0.02   0.00  -0.02
  10   6     0.12   0.08  -0.12    -0.23  -0.06  -0.08    -0.04   0.01  -0.05
  11   1    -0.01  -0.04   0.07     0.01   0.07   0.16     0.00  -0.03  -0.13
  12   1     0.04  -0.18  -0.11     0.06   0.01   0.05    -0.06   0.09   0.04
  13   1     0.00   0.08  -0.15    -0.09   0.06   0.04     0.06  -0.08   0.06
  14   1    -0.03  -0.09   0.18     0.09  -0.02   0.03    -0.03   0.04  -0.07
  15   1    -0.03   0.13   0.14    -0.04   0.04   0.02     0.03  -0.06  -0.05
  16   1    -0.04   0.04  -0.04    -0.03   0.03  -0.18     0.04  -0.00   0.08
  17   1     0.05  -0.02  -0.03     0.04  -0.11  -0.15    -0.03   0.03   0.07
  18   1    -0.03   0.06  -0.09    -0.01  -0.04  -0.07     0.07  -0.08   0.19
  19   1     0.01  -0.04  -0.07     0.05  -0.03  -0.07    -0.08   0.15   0.15
  20   1    -0.01   0.15   0.10    -0.03  -0.04  -0.03     0.07  -0.17  -0.21
  21   1    -0.03  -0.07   0.13     0.06  -0.02  -0.03    -0.05   0.09  -0.26
  22   1     0.04  -0.17  -0.17     0.05  -0.01   0.05     0.09  -0.06  -0.09
  23   1    -0.01   0.13  -0.23    -0.05  -0.01   0.05    -0.07   0.02  -0.11
  24   1     0.01  -0.10   0.21     0.01  -0.04   0.18     0.02  -0.09   0.21
  25   1    -0.07   0.16   0.15     0.01   0.10   0.15    -0.05   0.15   0.16
  26   1    -0.00  -0.08  -0.02    -0.07  -0.00   0.02    -0.03  -0.06  -0.01
  27   1     0.04   0.02  -0.04     0.03   0.04   0.02     0.03   0.03  -0.02
  28   1    -0.04  -0.10  -0.01     0.10   0.08  -0.01     0.02   0.00  -0.00
  29   1    -0.01  -0.04   0.09     0.02   0.03  -0.14     0.00   0.00  -0.02
  30   1     0.01  -0.03   0.01    -0.03   0.02  -0.11    -0.00   0.01  -0.03
  31   1     0.12   0.10   0.00    -0.19  -0.08  -0.05    -0.03   0.01  -0.01
  32   1     0.01   0.05  -0.16    -0.05  -0.04   0.10    -0.01   0.00  -0.00
                      7                      8                      9
                        a                      a                      a 
 Frequencies --   117.6298               148.4873               233.1774
 Red. masses --    99.0000                99.0000                99.0000
 Frc consts  --    99.0000                99.0000                99.0000
 IR Inten    --    99.0000                99.0000                99.0000
 Raman Activ --     0.0000                 0.0000                 0.0000
 Depolar     --     0.0000                 0.0000                 0.0000
 Atom AN      X      Y      Z        X      Y      Z        X      Y      Z
   1   6     0.02   0.06  -0.21    -0.01   0.11   0.10     0.00   0.01   0.04
   2   6     0.09   0.03   0.20     0.08  -0.05  -0.15     0.01  -0.04  -0.27
   3   6     0.04  -0.04   0.32     0.04  -0.14  -0.25    -0.00   0.02   0.14
   4   6     0.07  -0.14  -0.17     0.02  -0.04   0.36    -0.00   0.02   0.10
   5   6     0.08  -0.08  -0.09     0.05   0.00   0.26     0.00  -0.01  -0.03
   6   6     0.03  -0.03  -0.21     0.01  -0.02  -0.37     0.00  -0.00  -0.02
   7   6     0.05   0.05  -0.13     0.02   0.08  -0.16    -0.00  -0.00   0.01
   8   6    -0.00   0.15   0.28     0.02   0.10   0.13    -0.00  -0.00   0.00
   9   6     0.01   0.05   0.03    -0.04  -0.04   0.08    -0.00   0.00   0.00
  10   6    -0.35  -0.06  -0.00    -0.18  -0.01  -0.01    -0.01   0.00  -0.00
  11   1     0.02   0.04  -0.06     0.01   0.06   0.02    -0.01   0.09   0.55
  12   1    -0.04  -0.06  -0.10    -0.00   0.09   0.06     0.33  -0.33  -0.16
  13   1     0.03   0.08  -0.12    -0.04  -0.02   0.07    -0.32   0.27  -0.27
  14   1    -0.01  -0.03   0.09     0.07   0.01  -0.06    -0.00   0.06  -0.15
  15   1     0.09   0.05   0.08     0.00  -0.04  -0.05     0.01  -0.11  -0.12
  16   1    -0.03  -0.09   0.17     0.05   0.06  -0.16     0.04  -0.06   0.11
  17   1     0.03   0.09   0.14    -0.03  -0.16  -0.13    -0.04   0.09   0.08
  18   1     0.05   0.04  -0.13    -0.04  -0.10   0.19     0.01  -0.00   0.04
  19   1    -0.02  -0.14  -0.10     0.04   0.11   0.16    -0.02   0.02   0.03
  20   1     0.03   0.02  -0.01     0.09   0.09   0.12     0.02  -0.02  -0.02
  21   1     0.03  -0.05   0.00    -0.04  -0.07   0.14    -0.01   0.02  -0.03
  22   1     0.00  -0.04  -0.07    -0.03  -0.15  -0.17     0.00  -0.00  -0.01
  23   1    -0.01   0.01  -0.08     0.03   0.10  -0.22    -0.00  -0.00  -0.01
  24   1     0.07   0.06  -0.08     0.06   0.03  -0.05     0.00  -0.00   0.01
  25   1    -0.02  -0.05  -0.06    -0.04   0.01  -0.05    -0.00   0.01   0.00
  26   1     0.00   0.15   0.12     0.03   0.09   0.06    -0.00  -0.00  -0.00
  27   1    -0.01  -0.03   0.17    -0.00  -0.01   0.09    -0.00   0.00  -0.00
  28   1     0.06   0.03   0.02    -0.02  -0.03   0.01    -0.00  -0.00   0.00
  29   1     0.02  -0.00  -0.06     0.01  -0.03   0.03    -0.00  -0.00   0.00
  30   1    -0.04   0.05  -0.13    -0.04   0.00  -0.05    -0.00   0.00  -0.00
  31   1    -0.28  -0.07  -0.03    -0.10   0.00  -0.00    -0.00   0.00   0.00
  32   1    -0.06  -0.05   0.15    -0.04  -0.01   0.03    -0.00   0.00  -0.00
                     10                     11                     12
                        a                      a                      a 
 Frequencies --   156.2446               251.5899               216.7516
 Red. masses --    99.0000                99.0000                99.0000
 Frc consts  --    99.0000                99.0000                99.0000
 IR Inten    --    99.0000                99.0000                99.0000
 Raman Activ --     0.0000                 0.0000                 0.0000
 Depolar     --     0.0000                 0.0000                 0.0000
 Atom AN      X      Y      Z        X      Y      Z        X      Y      Z
   1   6    -0.13   0.23  -0.06     0.19   0.08  -0.01     0.37  -0.06   0.02
   2   6     0.14  -0.09   0.04     0.25  -0.02   0.01     0.17   0.15  -0.02
   3   6     0.02  -0.30   0.09     0.17  -0.10   0.02     0.15   0.16  -0.02
   4   6     0.00  -0.28  -0.01     0.05  -0.01  -0.00     0.18   0.05  -0.00
   5   6     0.12  -0.04  -0.05     0.03   0.05   0.00     0.01  -0.18   0.04
   6   6    -0.06   0.22   0.07    -0.08   0.13   0.05    -0.04  -0.20   0.03
   7   6    -0.02   0.31   0.02    -0.19   0.01   0.01    -0.05  -0.13  -0.01
   8   6     0.10   0.14  -0.14    -0.16  -0.12  -0.21    -0.22   0.04  -0.09
   9   6    -0.09  -0.15   0.06    -0.29  -0.16   0.15    -0.25   0.10   0.02
  10   6    -0.06  -0.06  -0.02     0.00   0.11  -0.02    -0.33   0.08   0.02
  11   1     0.01   0.15  -0.03     0.07   0.04  -0.01     0.07  -0.09   0.01
  12   1    -0.10   0.06  -0.02     0.04   0.03  -0.00     0.15  -0.01   0.01
  13   1    -0.09   0.07  -0.02     0.05   0.02  -0.00     0.16  -0.02   0.01
  14   1     0.08  -0.02   0.01     0.09  -0.00   0.00     0.03   0.04  -0.00
  15   1     0.09  -0.02   0.01     0.09  -0.00   0.00     0.03   0.04  -0.00
  16   1    -0.01  -0.10   0.04     0.05  -0.03   0.01     0.04   0.05  -0.00
  17   1     0.00  -0.06   0.04     0.05  -0.02   0.01     0.04   0.05  -0.01
  18   1    -0.01  -0.07  -0.01     0.00  -0.00  -0.00     0.08   0.02  -0.00
  19   1    -0.03  -0.09  -0.01     0.01  -0.01  -0.00     0.08   0.01  -0.00
  20   1     0.06  -0.04  -0.03     0.01   0.01  -0.00    -0.02  -0.05   0.01
  21   1     0.09   0.02  -0.04     0.03   0.02  -0.01    -0.02  -0.05   0.01
  22   1    -0.03   0.10   0.04    -0.03   0.06   0.03    -0.02  -0.05   0.01
  23   1    -0.06   0.03   0.05    -0.02   0.02   0.04    -0.01  -0.06   0.01
  24   1    -0.03   0.07   0.03    -0.09  -0.03   0.03    -0.01  -0.04  -0.00
  25   1     0.01   0.11   0.02    -0.05   0.04   0.02     0.01  -0.03   0.00
  26   1     0.07  -0.01  -0.06    -0.00  -0.13  -0.10    -0.07  -0.02  -0.04
  27   1     0.07   0.08  -0.08    -0.05   0.04  -0.15    -0.10   0.02  -0.05
  28   1    -0.13  -0.09  -0.01    -0.17  -0.11   0.01    -0.10   0.03   0.00
  29   1     0.02  -0.10   0.11    -0.09  -0.05   0.16    -0.06   0.01   0.02
  30   1    -0.13  -0.21   0.14     0.16   0.31  -0.20    -0.21  -0.18   0.14
  31   1     0.24   0.07   0.04    -0.32   0.02  -0.02     0.15   0.09   0.04
  32   1    -0.16   0.10  -0.22     0.22  -0.16   0.16    -0.25   0.16  -0.17
                     13                     14                     15
                        a                      a                      a 
 Frequencies --   299.1799               342.7558               431.2383
 Red. masses --    99.0000                99.0000                99.0000
 Frc consts  --    99.0000                99.0000                99.0000
 IR Inten    --    99.0000                99.0000                99.0000
 Raman Activ --     0.0000                 0.0000                 0.0000
 Depolar     --     0.0000                 0.0000                 0.0000
 Atom AN      X      Y      Z        X      Y      Z        X      Y      Z
   1   6    -0.03   0.14  -0.02     0.31  -0.00   0.01    -0.24   0.00  -0.01
   2   6     0.25  -0.22   0.04     0.10   0.20  -0.03     0.03  -0.26   0.04
   3   6     0.22  -0.22   0.04    -0.06  -0.01   0.00     0.26   0.14  -0.01
   4   6    -0.08   0.14  -0.02    -0.03  -0.15   0.03     0.16   0.29  -0.05
   5   6    -0.04   0.31  -0.05    -0.08  -0.14   0.02    -0.08  -0.12   0.01
   6   6     0.04   0.13  -0.05    -0.30   0.11  -0.04    -0.03  -0.23   0.05
   7   6    -0.19  -0.26   0.03    -0.25   0.22   0.00     0.09   0.10   0.04
   8   6    -0.23  -0.23   0.15    -0.11   0.06   0.20    -0.10   0.31   0.03
   9   6     0.02   0.15  -0.15    -0.01  -0.06  -0.24    -0.26  -0.09  -0.17
  10   6     0.04   0.00   0.03     0.34  -0.20   0.00     0.13  -0.14  -0.01
  11   1     0.05   0.14  -0.02     0.04  -0.08   0.02     0.00   0.12  -0.02
  12   1    -0.08   0.04  -0.01     0.15  -0.00   0.00    -0.15   0.00  -0.00
  13   1    -0.08   0.04  -0.01     0.15   0.00   0.00    -0.15   0.00  -0.01
  14   1     0.11  -0.06   0.01     0.03   0.05  -0.01    -0.00  -0.07   0.01
  15   1     0.11  -0.06   0.01     0.03   0.05  -0.01    -0.00  -0.07   0.01
  16   1     0.10  -0.06   0.01    -0.05  -0.00  -0.00     0.14   0.04  -0.00
  17   1     0.10  -0.06   0.01    -0.05  -0.01   0.00     0.14   0.04  -0.00
  18   1    -0.07   0.03  -0.00     0.00  -0.04   0.01     0.07   0.08  -0.01
  19   1    -0.07   0.04  -0.01     0.00  -0.04   0.01     0.07   0.08  -0.01
  20   1    -0.01   0.09  -0.01     0.00  -0.04   0.01    -0.07  -0.04   0.00
  21   1    -0.02   0.08  -0.01    -0.00  -0.04   0.01    -0.07  -0.03  -0.00
  22   1     0.06   0.03  -0.02    -0.12   0.02  -0.02    -0.02  -0.07   0.01
  23   1     0.06   0.05  -0.02    -0.13   0.03  -0.02    -0.03  -0.06   0.01
  24   1    -0.08  -0.06  -0.02    -0.05   0.08  -0.01     0.10   0.03   0.02
  25   1    -0.10  -0.10  -0.00    -0.10   0.03  -0.01     0.07   0.03   0.01
  26   1    -0.13  -0.00   0.06    -0.08   0.15   0.11    -0.07   0.18   0.04
  27   1    -0.09  -0.11   0.09     0.04  -0.07   0.18     0.02   0.02   0.10
  28   1     0.13   0.11  -0.00     0.06   0.01  -0.05    -0.16  -0.06  -0.07
  29   1    -0.05   0.11  -0.17    -0.03   0.01  -0.11    -0.03  -0.07   0.05
  30   1    -0.05  -0.08   0.12     0.10   0.02   0.12     0.06   0.07   0.10
  31   1     0.15  -0.02   0.01     0.16  -0.13  -0.02     0.08  -0.09  -0.02
  32   1    -0.06   0.06  -0.05     0.14  -0.10   0.00     0.12  -0.11  -0.01
                     16                     17                     18
                        a                      a                      a 
 Frequencies --   459.0204               768.2555               504.8348
 Red. masses --    99.0000                99.0000                99.0000
 Frc consts  --    99.0000                99.0000                99.0000
 IR Inten    --    99.0000                99.0000                99.0000
 Raman Activ --     0.0000                 0.0000                 0.0000
 Depolar     --     0.0000                 0.0000                 0.0000
 Atom AN      X      Y      Z        X      Y      Z        X      Y      Z
   1   6     0.21   0.09  -0.01    -0.00  -0.00  -0.00     0.16   0.03  -0.00
   2   6     0.23  -0.05   0.01     0.00  -0.00  -0.03     0.00   0.14  -0.02
   3   6     0.05  -0.16   0.03     0.00  -0.01  -0.06    -0.21  -0.20   0.03
   4   6    -0.34   0.20  -0.05     0.00  -0.02  -0.09    -0.26  -0.10   0.01
   5   6    -0.47   0.01  -0.02     0.00  -0.02  -0.11     0.00   0.27  -0.05
   6   6    -0.20  -0.27   0.04    -0.00  -0.01  -0.11     0.33  -0.09   0.04
   7   6     0.10   0.08  -0.03    -0.00  -0.03  -0.10     0.28  -0.16   0.08
   8   6     0.23   0.09  -0.04     0.02  -0.03  -0.06    -0.10   0.24  -0.02
   9   6     0.22  -0.01   0.11     0.04   0.02  -0.01    -0.28  -0.03  -0.13
  10   6    -0.03   0.02  -0.01    -0.00   0.02   0.02     0.02  -0.07   0.00
  11   1     0.07   0.03  -0.00    -0.00   0.00   0.01     0.00  -0.07   0.01
  12   1     0.05   0.02  -0.00     0.02   0.03   0.01     0.10   0.01  -0.00
  13   1     0.05   0.02  -0.00    -0.02  -0.02   0.02     0.10   0.01   0.00
  14   1     0.10  -0.01   0.00     0.03  -0.08   0.07     0.02   0.04  -0.00
  15   1     0.10  -0.01   0.00    -0.03   0.10   0.04     0.02   0.04  -0.01
  16   1     0.04  -0.04   0.01    -0.01  -0.15   0.13    -0.09  -0.06   0.00
  17   1     0.04  -0.04   0.01     0.01   0.19   0.08    -0.09  -0.06   0.01
  18   1    -0.13   0.05  -0.01     0.03  -0.21   0.19    -0.13  -0.03  -0.00
  19   1    -0.13   0.05  -0.02    -0.04   0.26   0.11    -0.14  -0.03   0.00
  20   1    -0.20  -0.01  -0.01    -0.02   0.31   0.13    -0.00   0.07  -0.02
  21   1    -0.20  -0.00  -0.01     0.01  -0.25   0.23     0.00   0.07  -0.01
  22   1    -0.08  -0.07   0.01    -0.03   0.31   0.12     0.17  -0.02   0.01
  23   1    -0.07  -0.07   0.01    -0.00  -0.24   0.23     0.16  -0.01   0.00
  24   1     0.06   0.02  -0.00     0.01  -0.21   0.19     0.14  -0.04   0.03
  25   1     0.07   0.02  -0.01    -0.05   0.25   0.10     0.13  -0.03   0.03
  26   1     0.11  -0.02  -0.03     0.02   0.15   0.05    -0.09   0.14   0.02
  27   1     0.07   0.06  -0.05    -0.04  -0.12   0.11    -0.03   0.01   0.07
  28   1     0.04  -0.01   0.03    -0.04  -0.03  -0.02    -0.19  -0.05  -0.06
  29   1     0.08  -0.03   0.04     0.01   0.00   0.06    -0.03  -0.06   0.07
  30   1    -0.01  -0.05  -0.07    -0.01  -0.03  -0.01     0.02   0.07   0.10
  31   1    -0.05   0.03   0.01    -0.02  -0.02  -0.00     0.05  -0.06  -0.02
  32   1    -0.05   0.04   0.01    -0.03   0.03   0.04     0.08  -0.08  -0.01
                     19                     20                     21
                        a                      a                      a 
 Frequencies --   770.7687               806.5279               784.3746
 Red. masses --    99.0000                99.0000                99.0000
 Frc consts  --    99.0000                99.0000                99.0000
 IR Inten    --    99.0000                99.0000                99.0000
 Raman Activ --     0.0000                 0.0000                 0.0000
 Depolar     --     0.0000                 0.0000                 0.0000
 Atom AN      X      Y      Z        X      Y      Z        X      Y      Z
   1   6    -0.00  -0.00  -0.01     0.00  -0.00  -0.03     0.00  -0.00  -0.02
   2   6     0.00  -0.01  -0.10     0.00  -0.02  -0.12     0.00  -0.03  -0.14
   3   6     0.00  -0.02  -0.13    -0.01  -0.01   0.00     0.01  -0.01  -0.09
   4   6     0.00  -0.02  -0.10    -0.02   0.03   0.12     0.00   0.00   0.07
   5   6     0.01   0.00  -0.02     0.00   0.01   0.05    -0.01   0.02   0.15
   6   6     0.01   0.00   0.08     0.05  -0.06  -0.09    -0.03   0.04   0.06
   7   6     0.01   0.05   0.12     0.08   0.08  -0.11    -0.03  -0.06  -0.08
   8   6    -0.03   0.04   0.09    -0.01  -0.01   0.06     0.04  -0.05  -0.13
   9   6    -0.06  -0.04   0.01    -0.18  -0.15   0.09     0.11   0.07  -0.04
  10   6     0.00  -0.03  -0.03    -0.06  -0.04   0.03     0.01   0.05   0.03
  11   1    -0.00   0.00   0.03    -0.00   0.01   0.05     0.00   0.01   0.05
  12   1     0.06   0.08   0.04     0.10   0.10   0.04     0.10   0.11   0.05
  13   1    -0.06  -0.06   0.06    -0.09  -0.08   0.07    -0.10  -0.09   0.08
  14   1     0.05  -0.20   0.18    -0.01  -0.16   0.12     0.03  -0.23   0.20
  15   1    -0.06   0.24   0.10     0.01   0.19   0.07    -0.04   0.28   0.11
  16   1     0.02  -0.26   0.23     0.09   0.01  -0.00     0.09  -0.13   0.12
  17   1    -0.03   0.32   0.13    -0.09  -0.01  -0.00    -0.09   0.16   0.07
  18   1    -0.03  -0.19   0.17    -0.03   0.15  -0.12    -0.09   0.09  -0.08
  19   1     0.02   0.24   0.10     0.02  -0.18  -0.06     0.10  -0.11  -0.04
  20   1    -0.07   0.04   0.02     0.08  -0.06  -0.02     0.03  -0.27  -0.10
  21   1     0.07  -0.03   0.03    -0.09   0.05  -0.05    -0.01   0.22  -0.19
  22   1     0.07  -0.16  -0.06    -0.06   0.15   0.05    -0.08  -0.13  -0.05
  23   1    -0.05   0.12  -0.12     0.07  -0.14   0.12     0.07   0.11  -0.09
  24   1     0.03   0.22  -0.20     0.11  -0.09   0.11    -0.11  -0.14   0.10
  25   1     0.03  -0.27  -0.10    -0.02   0.18   0.04     0.03   0.14   0.06
  26   1    -0.01  -0.20  -0.06     0.11  -0.04   0.00    -0.02   0.22   0.06
  27   1     0.05   0.16  -0.15    -0.00   0.03  -0.02    -0.04  -0.18   0.16
  28   1     0.07   0.04   0.03     0.22   0.23   0.16    -0.14  -0.10  -0.07
  29   1    -0.02  -0.00  -0.10    -0.07   0.01  -0.39     0.03   0.00   0.20
  30   1     0.01   0.04   0.02     0.04   0.12   0.00    -0.02  -0.07  -0.02
  31   1     0.03   0.03   0.01     0.03   0.23   0.11    -0.04  -0.08  -0.03
  32   1     0.05  -0.05  -0.07     0.13  -0.13  -0.26    -0.08   0.09   0.14
                     22                     23                     24
                        a                      a                      a 
 Frequencies --   834.0804               887.0613              1504.6420
 Red. masses --    99.0000                99.0000                99.0000
 Frc consts  --    99.0000                99.0000                99.0000
 IR Inten    --    99.0000                99.0000                99.0000
 Raman Activ --     0.0000                 0.0000                 0.0000
 Depolar     --     0.0000                 0.0000                 0.0000
 Atom AN      X      Y      Z        X      Y      Z        X      Y      Z
   1   6     0.00   0.01   0.06     0.01  -0.02  -0.10    -0.00   0.03   0.21
   2   6    -0.00   0.02   0.14     0.00  -0.02  -0.08    -0.00   0.01   0.05
   3   6     0.00  -0.02  -0.10    -0.01   0.04   0.20     0.00  -0.00  -0.00
   4   6    -0.00  -0.02  -0.15    -0.00  -0.00  -0.05     0.00  -0.00  -0.00
   5   6    -0.01   0.01   0.10    -0.00  -0.05  -0.17    -0.00  -0.00   0.00
   6   6     0.01   0.02   0.14    -0.01   0.04   0.16     0.00  -0.00   0.00
   7   6     0.05   0.04  -0.11     0.02   0.04   0.07    -0.00  -0.00   0.00
   8   6     0.05  -0.09  -0.14     0.08  -0.11  -0.19    -0.00   0.00  -0.00
   9   6    -0.09  -0.10   0.04    -0.04  -0.06  -0.03     0.00   0.00   0.00
  10   6    -0.05   0.02   0.09    -0.03   0.05   0.11     0.00   0.00   0.00
  11   1     0.00  -0.01  -0.08     0.00   0.02   0.10     0.02  -0.11  -0.71
  12   1    -0.14  -0.14  -0.06     0.17   0.16   0.06     0.45  -0.12  -0.05
  13   1     0.15   0.12  -0.09    -0.18  -0.14   0.10    -0.45   0.09  -0.10
  14   1     0.07   0.17  -0.12    -0.16  -0.09   0.05     0.02   0.02  -0.01
  15   1    -0.06  -0.20  -0.07     0.16   0.10   0.03    -0.02  -0.02   0.00
  16   1    -0.10  -0.12   0.08    -0.00   0.19  -0.13     0.02   0.00   0.00
  17   1     0.10   0.14   0.04     0.01  -0.22  -0.07    -0.02  -0.00   0.00
  18   1    -0.07  -0.16   0.12     0.18  -0.03   0.04    -0.00  -0.00  -0.00
  19   1     0.06   0.20   0.06    -0.18   0.04   0.01     0.00   0.00   0.00
  20   1    -0.10  -0.14  -0.04    -0.12   0.17   0.05     0.00   0.00   0.00
  21   1     0.10   0.11  -0.08     0.10  -0.15   0.12    -0.00   0.00  -0.00
  22   1    -0.06  -0.20  -0.06     0.13  -0.16  -0.04     0.00   0.00   0.00
  23   1     0.07   0.16  -0.12    -0.13   0.14  -0.11    -0.00   0.00  -0.00
  24   1    -0.09  -0.10   0.08    -0.17   0.05  -0.06     0.00   0.00  -0.00
  25   1     0.12   0.16   0.04     0.18  -0.06  -0.01    -0.00   0.00   0.00
  26   1     0.08   0.20   0.06    -0.01   0.21   0.05     0.00  -0.00  -0.00
  27   1    -0.01  -0.18   0.15     0.05  -0.19   0.15    -0.00  -0.00   0.00
  28   1     0.07   0.17   0.10    -0.05   0.10   0.04    -0.00  -0.00  -0.00
  29   1    -0.04   0.01  -0.21    -0.02  -0.01  -0.07    -0.00   0.00  -0.00
  30   1     0.02   0.06  -0.03     0.01   0.02  -0.05    -0.00   0.00   0.00
  31   1    -0.02   0.19   0.10    -0.05   0.14   0.08    -0.00  -0.00  -0.00
  32   1     0.05  -0.05  -0.15     0.00   0.01  -0.05    -0.00   0.00  -0.00
                     25                     26                     27
                        a                      a                      a 
 Frequencies --  1510.8960               947.7579              1508.1289
 Red. masses --    99.0000                99.0000                99.0000
 Frc consts  --    99.0000                99.0000                99.0000
 IR Inten    --    99.0000                99.0000                99.0000
 Raman Activ --     0.0000                 0.0000                 0.0000
 Depolar     --     0.0000                 0.0000                 0.0000
 Atom AN      X      Y      Z        X      Y      Z        X      Y      Z
   1   6     0.00  -0.00   0.00     0.04  -0.03  -0.12    -0.10   0.13  -0.02
   2   6     0.00   0.00   0.00     0.01  -0.02   0.04    -0.04   0.07  -0.01
   3   6    -0.00  -0.00   0.00    -0.03   0.06   0.13     0.01   0.06  -0.01
   4   6     0.00   0.00  -0.00    -0.00  -0.05  -0.20    -0.00  -0.03   0.00
   5   6     0.00   0.00  -0.00     0.00   0.03   0.11    -0.00   0.05  -0.01
   6   6    -0.01  -0.00  -0.01     0.01  -0.00   0.06     0.00  -0.04   0.01
   7   6     0.01   0.01   0.01     0.01  -0.02  -0.18    -0.00   0.06  -0.01
   8   6     0.00   0.00   0.00    -0.06   0.06   0.17     0.00  -0.05   0.01
   9   6    -0.04   0.03  -0.05    -0.01   0.04   0.07    -0.04  -0.01  -0.01
  10   6    -0.05   0.13  -0.16    -0.01  -0.02  -0.14    -0.09  -0.03  -0.00
  11   1    -0.00  -0.00  -0.00     0.04   0.07   0.09     0.12   0.22  -0.03
  12   1     0.00   0.00   0.00     0.14   0.15   0.05     0.14  -0.42  -0.22
  13   1    -0.00   0.00  -0.00    -0.19  -0.13   0.09     0.13  -0.33   0.35
  14   1     0.00  -0.00   0.00    -0.24  -0.00  -0.02     0.03  -0.05   0.06
  15   1    -0.00  -0.00  -0.00     0.21  -0.02  -0.00     0.03  -0.07  -0.04
  16   1    -0.00   0.00  -0.00    -0.20   0.10  -0.07    -0.00  -0.11   0.11
  17   1    -0.00   0.00   0.00     0.17  -0.10  -0.03     0.01  -0.14  -0.07
  18   1    -0.00  -0.00   0.00     0.02  -0.16   0.11    -0.00   0.06  -0.06
  19   1    -0.00  -0.00  -0.00    -0.03   0.18   0.05    -0.00   0.08   0.04
  20   1     0.00  -0.00  -0.00    -0.16  -0.12  -0.03     0.01  -0.11  -0.05
  21   1     0.00   0.00   0.00     0.18   0.11  -0.05     0.00  -0.09   0.09
  22   1     0.00  -0.01  -0.01    -0.20  -0.08  -0.02    -0.01   0.09   0.04
  23   1     0.01  -0.01   0.01     0.21   0.06  -0.02    -0.00   0.07  -0.08
  24   1    -0.05   0.00  -0.01     0.10  -0.13   0.10     0.01  -0.11   0.11
  25   1    -0.01  -0.00   0.00    -0.09   0.17   0.04     0.01  -0.14  -0.07
  26   1     0.02  -0.02  -0.01     0.13  -0.14  -0.01    -0.01   0.11   0.05
  27   1    -0.00  -0.01   0.01    -0.12   0.12  -0.11     0.00   0.07  -0.09
  28   1     0.06   0.02  -0.00     0.13  -0.10  -0.02     0.04   0.02   0.01
  29   1     0.02  -0.02   0.07    -0.02   0.03   0.01     0.02  -0.03   0.04
  30   1    -0.25  -0.52   0.13    -0.02   0.03   0.10     0.07   0.07  -0.20
  31   1     0.02   0.33   0.13     0.07  -0.16  -0.10     0.30   0.05   0.04
  32   1     0.43  -0.37   0.38     0.02  -0.03   0.05    -0.02   0.01   0.18
                     28                     29                     30
                        a                      a                      a 
 Frequencies --   998.5227              1507.6581              1205.4175
 Red. masses --    99.0000                99.0000                99.0000
 Frc consts  --    99.0000                99.0000                99.0000
 IR Inten    --    99.0000                99.0000                99.0000
 Raman Activ --     0.0000                 0.0000                 0.0000
 Depolar     --     0.0000                 0.0000                 0.0000
 Atom AN      X      Y      Z        X      Y      Z        X      Y      Z
   1   6    -0.02  -0.02  -0.10     0.07  -0.09   0.02     0.01  -0.05  -0.23
   2   6     0.01   0.03   0.10     0.04  -0.08   0.01    -0.02   0.07   0.35
   3   6     0.03   0.01  -0.02    -0.01  -0.01   0.00     0.01  -0.07  -0.32
   4   6     0.02  -0.05  -0.05     0.01  -0.03   0.00    -0.02   0.06   0.28
   5   6    -0.05   0.02   0.12    -0.00   0.04  -0.01    -0.00  -0.05  -0.21
   6   6    -0.06   0.05  -0.17     0.01  -0.03   0.01    -0.02   0.03   0.12
   7   6    -0.04  -0.13   0.14    -0.00   0.08  -0.02    -0.01  -0.02  -0.02
   8   6     0.17   0.02  -0.05     0.01  -0.07   0.02    -0.02   0.01  -0.08
   9   6     0.06  -0.02  -0.18    -0.05  -0.01  -0.02     0.02  -0.03   0.11
  10   6    -0.08   0.06   0.18    -0.13  -0.05  -0.00    -0.02   0.03  -0.07
  11   1    -0.01  -0.00   0.06    -0.09  -0.16   0.02     0.00   0.02   0.10
  12   1     0.11   0.10   0.03    -0.11   0.30   0.16     0.15   0.17   0.04
  13   1    -0.11  -0.10   0.06    -0.10   0.24  -0.25    -0.17  -0.15   0.08
  14   1    -0.19   0.06  -0.05    -0.03   0.09  -0.10     0.01   0.20  -0.10
  15   1     0.19  -0.06  -0.02    -0.03   0.12   0.06    -0.01  -0.21  -0.03
  16   1    -0.23  -0.03   0.01     0.00   0.02  -0.02     0.05  -0.18   0.10
  17   1     0.25   0.04   0.01     0.00   0.02   0.01    -0.02   0.19   0.03
  18   1    -0.20  -0.07   0.03    -0.01   0.05  -0.05     0.08   0.17  -0.08
  19   1     0.23   0.06   0.02    -0.01   0.06   0.03    -0.05  -0.18  -0.03
  20   1     0.14  -0.09  -0.02     0.01  -0.09  -0.04    -0.08   0.12   0.02
  21   1    -0.14   0.08  -0.06     0.00  -0.07   0.07     0.12  -0.11   0.07
  22   1    -0.03   0.14   0.02    -0.01   0.09   0.04    -0.09  -0.08  -0.01
  23   1     0.00  -0.09   0.07    -0.01   0.07  -0.08     0.14   0.08  -0.03
  24   1     0.08   0.05  -0.04     0.01  -0.14   0.16     0.13  -0.00   0.01
  25   1    -0.16  -0.15  -0.02     0.02  -0.19  -0.09    -0.08   0.01  -0.00
  26   1    -0.22   0.02  -0.02    -0.02   0.15   0.06    -0.10   0.04  -0.01
  27   1     0.22  -0.01   0.04     0.00   0.10  -0.13     0.11  -0.02   0.03
  28   1    -0.21   0.09  -0.02     0.07   0.04   0.02     0.02   0.04   0.05
  29   1     0.15  -0.14   0.01     0.03  -0.04   0.06    -0.02   0.02  -0.02
  30   1     0.02   0.07  -0.02     0.11   0.11  -0.31    -0.02   0.01   0.05
  31   1    -0.04   0.19   0.12     0.45   0.08   0.05     0.03  -0.07  -0.05
  32   1     0.03  -0.02  -0.09    -0.04   0.02   0.27     0.01  -0.01   0.03
                     31                     32                     33
                        a                      a                      a 
 Frequencies --  1184.3962              1034.0613              1493.4104
 Red. masses --    99.0000                99.0000                99.0000
 Frc consts  --    99.0000                99.0000                99.0000
 IR Inten    --    99.0000                99.0000                99.0000
 Raman Activ --     0.0000                 0.0000                 0.0000
 Depolar     --     0.0000                 0.0000                 0.0000
 Atom AN      X      Y      Z        X      Y      Z        X      Y      Z
   1   6    -0.01   0.01  -0.04    -0.02  -0.04  -0.05     0.00   0.00  -0.00
   2   6     0.01  -0.02   0.06     0.01   0.04   0.07     0.01  -0.02   0.00
   3   6     0.00   0.03  -0.08     0.04   0.01  -0.07    -0.00   0.04  -0.01
   4   6     0.01  -0.02   0.11     0.03  -0.06   0.07    -0.02   0.03  -0.01
   5   6     0.03   0.03  -0.14    -0.03   0.05  -0.05     0.01  -0.10   0.02
   6   6     0.01  -0.02   0.20    -0.07   0.01   0.02     0.03  -0.00   0.01
   7   6     0.06   0.01  -0.26    -0.01  -0.07   0.02    -0.01   0.20  -0.04
   8   6     0.07  -0.04   0.37    -0.00   0.08  -0.04    -0.03  -0.01  -0.01
   9   6    -0.08   0.12  -0.37     0.00   0.05   0.18    -0.04  -0.04  -0.10
  10   6     0.07  -0.08   0.22    -0.05  -0.04  -0.17     0.07   0.03   0.01
  11   1    -0.01  -0.01   0.02     0.00   0.01   0.03    -0.00  -0.00   0.00
  12   1     0.04   0.03   0.00     0.04   0.04   0.02    -0.00  -0.00  -0.00
  13   1    -0.01  -0.02   0.01    -0.07  -0.05   0.03    -0.00  -0.00   0.00
  14   1    -0.01   0.02  -0.02    -0.10   0.05  -0.03    -0.01   0.03  -0.03
  15   1     0.02  -0.04  -0.00     0.09  -0.04  -0.01    -0.01   0.04   0.02
  16   1    -0.04  -0.04   0.02    -0.15  -0.05   0.03     0.01  -0.06   0.06
  17   1     0.01   0.06   0.01     0.15   0.07   0.01     0.01  -0.07  -0.04
  18   1    -0.06   0.04  -0.03    -0.20   0.00  -0.03     0.01  -0.05   0.06
  19   1     0.02  -0.07  -0.01     0.22  -0.04  -0.00     0.02  -0.07  -0.03
  20   1     0.02   0.10   0.01     0.25   0.07   0.01    -0.02   0.21   0.11
  21   1    -0.08  -0.07   0.04    -0.25  -0.03   0.01    -0.01   0.16  -0.17
  22   1     0.03  -0.13  -0.01     0.28   0.01   0.01    -0.02   0.02   0.01
  23   1    -0.13   0.08  -0.06    -0.28  -0.00  -0.02    -0.02   0.01  -0.02
  24   1    -0.15  -0.14   0.07    -0.25  -0.03  -0.01     0.02  -0.32   0.36
  25   1     0.01   0.17   0.02     0.29  -0.01   0.01     0.03  -0.44  -0.21
  26   1     0.13  -0.23   0.00     0.26   0.08   0.03     0.02   0.04   0.01
  27   1    -0.15   0.13  -0.12    -0.25  -0.03  -0.01     0.01   0.02  -0.02
  28   1    -0.17  -0.06  -0.14     0.16  -0.07   0.02     0.22   0.19   0.09
  29   1     0.06  -0.06   0.06     0.01   0.01  -0.02     0.04  -0.06   0.30
  30   1     0.05  -0.07  -0.17    -0.01   0.10   0.14    -0.06  -0.04   0.16
  31   1    -0.11   0.22   0.14     0.10  -0.15  -0.10    -0.25  -0.06  -0.04
  32   1    -0.04   0.04  -0.09     0.07  -0.08  -0.01     0.00   0.00  -0.16
                     34                     35                     36
                        a                      a                      a 
 Frequencies --  1495.9995               928.4828              1496.7434
 Red. masses --    99.0000                99.0000                99.0000
 Frc consts  --    99.0000                99.0000                99.0000
 IR Inten    --    99.0000                99.0000                99.0000
 Raman Activ --     0.0000                 0.0000                 0.0000
 Depolar     --     0.0000                 0.0000                 0.0000
 Atom AN      X      Y      Z        X      Y      Z        X      Y      Z
   1   6    -0.00   0.03  -0.01    -0.07   0.00  -0.01    -0.01   0.02  -0.00
   2   6     0.01  -0.14   0.02    -0.02   0.06  -0.01    -0.02  -0.05   0.01
   3   6    -0.03  -0.04   0.01     0.05  -0.05   0.03     0.00  -0.16   0.03
   4   6    -0.01   0.17  -0.03     0.06  -0.02  -0.01     0.03   0.04  -0.01
   5   6     0.03  -0.01   0.00     0.04   0.09  -0.01    -0.01   0.14  -0.02
   6   6     0.01  -0.10   0.02    -0.05  -0.04   0.02    -0.03   0.01  -0.00
   7   6    -0.02   0.02  -0.01    -0.15  -0.15  -0.00     0.03  -0.03   0.01
   8   6     0.00   0.04  -0.01    -0.28   0.36  -0.09    -0.00  -0.11   0.02
   9   6     0.06   0.03   0.09     0.23   0.05   0.26    -0.05  -0.04  -0.10
  10   6    -0.00  -0.01  -0.02     0.22  -0.33  -0.09     0.04   0.03   0.02
  11   1     0.02   0.03  -0.00    -0.06  -0.07   0.02     0.02   0.04  -0.01
  12   1     0.01  -0.10  -0.05     0.05   0.01   0.00     0.02  -0.08  -0.04
  13   1     0.01  -0.08   0.08     0.01  -0.02   0.01     0.02  -0.06   0.06
  14   1    -0.01   0.24  -0.25    -0.01   0.01  -0.00     0.01   0.08  -0.08
  15   1    -0.02   0.31   0.16     0.03   0.02  -0.00     0.01   0.10   0.05
  16   1     0.02   0.07  -0.07     0.00   0.00  -0.01    -0.01   0.26  -0.27
  17   1     0.02   0.09   0.04     0.03  -0.03  -0.00    -0.02   0.33   0.17
  18   1     0.02  -0.28   0.30     0.02  -0.02   0.01    -0.02  -0.07   0.07
  19   1     0.03  -0.36  -0.18    -0.00   0.01   0.01    -0.01  -0.09  -0.04
  20   1    -0.02   0.04   0.02     0.00   0.02  -0.00     0.03  -0.29  -0.15
  21   1    -0.02   0.03  -0.03     0.05   0.03  -0.00     0.01  -0.22   0.24
  22   1    -0.03   0.23   0.11     0.01  -0.03  -0.00     0.02  -0.01  -0.01
  23   1    -0.01   0.17  -0.19     0.03   0.01  -0.01     0.01  -0.01   0.01
  24   1     0.01  -0.05   0.06    -0.02  -0.05   0.02    -0.01   0.05  -0.05
  25   1     0.03  -0.07  -0.03    -0.00  -0.01   0.01    -0.03   0.06   0.03
  26   1     0.01  -0.08  -0.03    -0.12   0.10  -0.03    -0.03   0.25   0.10
  27   1     0.00  -0.05   0.07    -0.18   0.09  -0.04     0.00   0.17  -0.21
  28   1    -0.19  -0.16  -0.08    -0.05   0.14   0.12     0.20   0.18   0.09
  29   1    -0.04   0.05  -0.25     0.12  -0.05   0.04     0.04  -0.05   0.27
  30   1     0.00  -0.00  -0.00     0.08  -0.24  -0.35    -0.03  -0.03   0.08
  31   1     0.03   0.04   0.02    -0.11   0.18   0.08    -0.14  -0.07  -0.03
  32   1     0.00  -0.00   0.06    -0.03  -0.01  -0.15     0.01  -0.00  -0.12
                     37                     38                     39
                        a                      a                      a 
 Frequencies --  1499.8890               941.1556              1503.9863
 Red. masses --    99.0000                99.0000                99.0000
 Frc consts  --    99.0000                99.0000                99.0000
 IR Inten    --    99.0000                99.0000                99.0000
 Raman Activ --     0.0000                 0.0000                 0.0000
 Depolar     --     0.0000                 0.0000                 0.0000
 Atom AN      X      Y      Z        X      Y      Z        X      Y      Z
   1   6     0.01  -0.04   0.01     0.36  -0.07   0.03     0.01  -0.00  -0.00
   2   6     0.00   0.15  -0.02     0.10  -0.26   0.04     0.02  -0.12   0.02
   3   6    -0.01   0.08  -0.01    -0.25   0.33  -0.07    -0.00   0.06  -0.01
   4   6    -0.02   0.09  -0.02    -0.13  -0.13   0.04     0.01  -0.15   0.03
   5   6     0.03   0.03  -0.00    -0.02  -0.04  -0.00    -0.01   0.06  -0.01
   6   6     0.00  -0.18   0.03     0.03   0.08  -0.02     0.01  -0.12   0.02
   7   6    -0.00  -0.05   0.01     0.01  -0.06   0.03    -0.01  -0.01   0.00
   8   6     0.01  -0.07   0.02    -0.04   0.06  -0.03    -0.00   0.00   0.00
   9   6    -0.00  -0.01  -0.01     0.03   0.01   0.03     0.03   0.01   0.02
  10   6     0.03   0.02   0.00     0.03  -0.06  -0.00     0.07   0.03  -0.00
  11   1    -0.03  -0.04   0.00     0.37   0.44  -0.07    -0.01  -0.02   0.01
  12   1    -0.02   0.12   0.06    -0.24  -0.01   0.01    -0.02   0.01   0.00
  13   1    -0.02   0.10  -0.10    -0.21   0.01  -0.03    -0.02   0.00  -0.01
  14   1     0.01  -0.26   0.27    -0.09  -0.08   0.01    -0.03   0.20  -0.21
  15   1     0.02  -0.33  -0.17    -0.14  -0.08   0.01    -0.03   0.26   0.14
  16   1     0.00  -0.10   0.11    -0.11   0.07  -0.01     0.01  -0.13   0.13
  17   1     0.01  -0.13  -0.07    -0.14   0.09  -0.01     0.01  -0.17  -0.08
  18   1     0.01  -0.15   0.16    -0.01  -0.01  -0.01    -0.02   0.27  -0.28
  19   1     0.02  -0.19  -0.10    -0.00  -0.04   0.00    -0.03   0.35   0.17
  20   1    -0.01  -0.07  -0.03     0.05   0.00   0.00     0.02  -0.16  -0.08
  21   1    -0.01  -0.06   0.06     0.02  -0.02   0.01     0.01  -0.12   0.13
  22   1    -0.04   0.38   0.18     0.05   0.03  -0.00    -0.02   0.27   0.13
  23   1    -0.01   0.28  -0.31     0.01   0.02   0.00    -0.00   0.21  -0.22
  24   1    -0.00   0.05  -0.06    -0.00  -0.00  -0.01     0.00   0.01  -0.01
  25   1    -0.00   0.07   0.04     0.01  -0.03   0.00     0.01   0.01   0.01
  26   1    -0.02   0.15   0.06    -0.04   0.03  -0.00     0.00  -0.00  -0.00
  27   1     0.00   0.11  -0.13    -0.02   0.01   0.00     0.00   0.00   0.00
  28   1     0.02   0.02   0.01    -0.03   0.04   0.02    -0.05  -0.03  -0.02
  29   1     0.00  -0.00   0.03     0.03  -0.02   0.00    -0.01   0.02  -0.05
  30   1    -0.03  -0.04   0.06     0.02  -0.04  -0.07    -0.07  -0.07   0.18
  31   1    -0.10  -0.02  -0.01    -0.02   0.05   0.03    -0.25  -0.03  -0.03
  32   1     0.02  -0.01  -0.06     0.00  -0.01  -0.04     0.03  -0.02  -0.14
                     40                     41                     42
                        a                      a                      a 
 Frequencies --  1501.7457              1491.2658              1498.0072
 Red. masses --    99.0000                99.0000                99.0000
 Frc consts  --    99.0000                99.0000                99.0000
 IR Inten    --    99.0000                99.0000                99.0000
 Raman Activ --     0.0000                 0.0000                 0.0000
 Depolar     --     0.0000                 0.0000                 0.0000
 Atom AN      X      Y      Z        X      Y      Z        X      Y      Z
   1   6     0.01  -0.02   0.00     0.00  -0.00   0.00    -0.01  -0.01   0.00
   2   6     0.02  -0.01   0.00     0.00   0.00  -0.00    -0.03   0.10  -0.02
   3   6    -0.03   0.14  -0.02     0.00   0.01  -0.00     0.03  -0.14   0.02
   4   6     0.00   0.11  -0.02    -0.00  -0.01   0.00     0.02  -0.06   0.01
   5   6    -0.01   0.19  -0.03    -0.01  -0.03   0.01    -0.02   0.07  -0.01
   6   6    -0.02   0.12  -0.02     0.00   0.07  -0.02     0.01  -0.02   0.00
   7   6     0.00   0.06  -0.01     0.02   0.03  -0.01    -0.02   0.13  -0.03
   8   6    -0.01   0.05  -0.01    -0.00  -0.20   0.06    -0.02   0.09  -0.02
   9   6     0.02   0.01   0.02     0.09   0.03   0.12     0.06   0.03   0.08
  10   6     0.02   0.00  -0.00     0.04   0.03  -0.01     0.03  -0.01  -0.02
  11   1    -0.02  -0.04   0.00    -0.00  -0.00   0.00     0.00   0.01  -0.00
  12   1    -0.02   0.06   0.03    -0.00   0.00   0.00     0.01   0.02   0.01
  13   1    -0.02   0.05  -0.05    -0.00   0.00  -0.00     0.01   0.02  -0.02
  14   1    -0.01   0.01  -0.02    -0.00  -0.00   0.00     0.03  -0.18   0.19
  15   1    -0.01   0.02   0.01    -0.00  -0.00  -0.00     0.03  -0.23  -0.12
  16   1     0.02  -0.22   0.23     0.00  -0.02   0.02    -0.03   0.23  -0.24
  17   1     0.03  -0.28  -0.15     0.00  -0.03  -0.02    -0.04   0.30   0.16
  18   1     0.01  -0.14   0.16     0.00   0.02  -0.02    -0.02   0.10  -0.10
  19   1     0.01  -0.19  -0.10     0.00   0.03   0.01    -0.03   0.13   0.06
  20   1     0.04  -0.39  -0.20    -0.00   0.07   0.04     0.02  -0.16  -0.08
  21   1     0.02  -0.30   0.32     0.01   0.06  -0.06     0.01  -0.13   0.13
  22   1     0.03  -0.23  -0.11     0.01  -0.15  -0.08    -0.01   0.07   0.03
  23   1     0.01  -0.17   0.19    -0.01  -0.12   0.13    -0.01   0.06  -0.06
  24   1     0.00  -0.09   0.10    -0.02  -0.08   0.08     0.02  -0.22   0.24
  25   1     0.01  -0.12  -0.06     0.00  -0.10  -0.04     0.05  -0.29  -0.14
  26   1     0.02  -0.10  -0.04    -0.05   0.46   0.19     0.03  -0.18  -0.08
  27   1     0.00  -0.07   0.08     0.03   0.32  -0.39     0.01  -0.12   0.16
  28   1    -0.04  -0.03  -0.02    -0.27  -0.23  -0.12    -0.18  -0.16  -0.08
  29   1    -0.01   0.02  -0.05    -0.05   0.07  -0.36    -0.04   0.06  -0.23
  30   1    -0.02  -0.01   0.06    -0.05  -0.07   0.10    -0.02  -0.02   0.08
  31   1    -0.08  -0.01  -0.01    -0.12   0.01  -0.00    -0.08   0.03   0.01
  32   1    -0.00   0.00  -0.04     0.04  -0.02  -0.03     0.00  -0.00  -0.00
                     43                     44                     45
                        a                      a                      a 
 Frequencies --  1234.0501              1009.1089              1055.8002
 Red. masses --    99.0000                99.0000                99.0000
 Frc consts  --    99.0000                99.0000                99.0000
 IR Inten    --    99.0000                99.0000                99.0000
 Raman Activ --     0.0000                 0.0000                 0.0000
 Depolar     --     0.0000                 0.0000                 0.0000
 Atom AN      X      Y      Z        X      Y      Z        X      Y      Z
   1   6     0.01  -0.05  -0.20     0.05   0.03  -0.05    -0.14  -0.26   0.04
   2   6    -0.02   0.06   0.22    -0.03  -0.04   0.06     0.16   0.29  -0.05
   3   6    -0.02  -0.03  -0.04    -0.09  -0.06  -0.02     0.26   0.11  -0.01
   4   6    -0.02  -0.01  -0.13    -0.06   0.14  -0.04     0.16  -0.39   0.07
   5   6    -0.04   0.04   0.26     0.10  -0.07   0.06    -0.17   0.40  -0.07
   6   6    -0.01  -0.06  -0.26     0.20  -0.13  -0.03    -0.14  -0.21   0.02
   7   6    -0.04   0.05   0.16     0.09   0.37   0.00    -0.00   0.05  -0.00
   8   6    -0.01  -0.03   0.01    -0.23  -0.21  -0.02    -0.01  -0.01  -0.01
   9   6     0.00   0.09  -0.13    -0.13  -0.07   0.03    -0.06  -0.11  -0.05
  10   6    -0.01  -0.08   0.11     0.23  -0.02   0.00     0.07   0.08   0.06
  11   1     0.01   0.03   0.08     0.02   0.02   0.03     0.05   0.08  -0.01
  12   1     0.11   0.14   0.03     0.07   0.06   0.01    -0.17  -0.06   0.01
  13   1    -0.14  -0.12   0.06    -0.04  -0.03   0.03    -0.17  -0.06  -0.00
  14   1     0.17   0.14  -0.05    -0.09   0.02  -0.02    -0.04   0.07  -0.01
  15   1    -0.15  -0.14  -0.02     0.09  -0.05  -0.01    -0.05   0.07  -0.01
  16   1     0.21  -0.01   0.01    -0.14  -0.04   0.01    -0.03   0.02  -0.01
  17   1    -0.14   0.01   0.00     0.11   0.02   0.01    -0.05   0.02  -0.01
  18   1     0.24  -0.05   0.04    -0.16   0.02  -0.01    -0.01  -0.11   0.02
  19   1    -0.15   0.07   0.01     0.10   0.05  -0.00    -0.03  -0.10   0.02
  20   1    -0.01  -0.15  -0.02     0.10  -0.05  -0.00    -0.06   0.09  -0.02
  21   1     0.11   0.15  -0.07    -0.12  -0.01  -0.02    -0.04   0.11  -0.02
  22   1     0.11   0.16   0.02     0.07   0.03   0.02    -0.01  -0.03   0.01
  23   1    -0.01  -0.14   0.07    -0.04  -0.08   0.03     0.04  -0.05   0.01
  24   1    -0.11   0.08  -0.05     0.05   0.15  -0.05     0.11   0.03  -0.00
  25   1     0.19  -0.08  -0.00     0.06   0.04  -0.03     0.05   0.01  -0.00
  26   1     0.25   0.02   0.03    -0.06  -0.01   0.01     0.04   0.00   0.00
  27   1    -0.17  -0.02  -0.02     0.05  -0.07   0.04     0.12   0.01   0.01
  28   1     0.03  -0.13  -0.10     0.05   0.01   0.03     0.07  -0.02  -0.00
  29   1    -0.02   0.03   0.07    -0.28   0.22   0.01    -0.12   0.07  -0.04
  30   1     0.03   0.01  -0.06     0.00  -0.27  -0.23    -0.01  -0.09  -0.05
  31   1    -0.03   0.11   0.08    -0.12  -0.01  -0.01    -0.05  -0.01   0.00
  32   1     0.00  -0.02  -0.09    -0.18   0.19   0.15    -0.08   0.10   0.09
                     46                     47                     48
                        a                      a                      a 
 Frequencies --  1063.9078              1258.1030              1121.1905
 Red. masses --    99.0000                99.0000                99.0000
 Frc consts  --    99.0000                99.0000                99.0000
 IR Inten    --    99.0000                99.0000                99.0000
 Raman Activ --     0.0000                 0.0000                 0.0000
 Depolar     --     0.0000                 0.0000                 0.0000
 Atom AN      X      Y      Z        X      Y      Z        X      Y      Z
   1   6     0.17   0.07  -0.01     0.03  -0.07  -0.09    -0.15  -0.03   0.00
   2   6    -0.15  -0.06   0.01    -0.07   0.07   0.05     0.30  -0.15   0.03
   3   6    -0.19  -0.22   0.03    -0.09  -0.03   0.08    -0.34   0.14  -0.03
   4   6     0.22   0.19  -0.02    -0.09  -0.05  -0.13    -0.00   0.09  -0.01
   5   6     0.30   0.27  -0.04    -0.07   0.08   0.07     0.07   0.02  -0.01
   6   6    -0.04  -0.44   0.08     0.00  -0.07   0.05    -0.24   0.09  -0.03
   7   6    -0.37   0.08  -0.04     0.09   0.06  -0.14     0.09  -0.22   0.03
   8   6     0.04   0.11  -0.04     0.05  -0.02   0.13    -0.08   0.19  -0.03
   9   6     0.11  -0.12  -0.06    -0.07  -0.13   0.07     0.00  -0.28  -0.09
  10   6    -0.06   0.12   0.08     0.11   0.16  -0.13     0.06   0.17   0.14
  11   1     0.09   0.09  -0.01     0.04   0.05   0.03    -0.10  -0.13   0.02
  12   1    -0.00   0.03   0.00     0.02   0.06   0.02     0.05  -0.03  -0.01
  13   1    -0.00   0.02  -0.01    -0.09  -0.06   0.02     0.05  -0.02   0.02
  14   1    -0.08  -0.02   0.00     0.23   0.06  -0.01     0.25  -0.03   0.01
  15   1    -0.07  -0.03  -0.00    -0.08  -0.03  -0.01     0.25  -0.03   0.01
  16   1    -0.11  -0.07   0.01     0.24   0.05  -0.01    -0.10   0.04  -0.01
  17   1    -0.10  -0.06   0.01     0.08  -0.04  -0.00    -0.09   0.04  -0.01
  18   1     0.01   0.05  -0.01     0.19  -0.05   0.04     0.10   0.04  -0.01
  19   1     0.02   0.05  -0.00     0.14   0.08   0.01     0.10   0.04   0.00
  20   1     0.05   0.07  -0.01     0.22  -0.02  -0.00     0.12   0.02   0.00
  21   1     0.03   0.07  -0.01    -0.02   0.05  -0.02     0.12   0.02   0.00
  22   1     0.00  -0.12   0.02     0.11  -0.02   0.01    -0.04   0.02  -0.01
  23   1    -0.02  -0.12   0.02    -0.12  -0.00  -0.02    -0.04   0.03  -0.01
  24   1    -0.10   0.01  -0.01    -0.15  -0.07   0.03     0.09  -0.06   0.02
  25   1    -0.08   0.02  -0.01    -0.04   0.08  -0.00     0.15  -0.03   0.02
  26   1     0.07   0.05  -0.00    -0.24  -0.11  -0.02     0.05   0.02  -0.02
  27   1     0.10   0.03   0.00    -0.05   0.02  -0.02     0.03   0.07  -0.02
  28   1     0.07  -0.06  -0.03    -0.20   0.30   0.15     0.19  -0.11  -0.03
  29   1     0.07  -0.07  -0.04     0.20  -0.24  -0.17    -0.05  -0.02  -0.11
  30   1    -0.01   0.07   0.08    -0.03  -0.05   0.05    -0.02  -0.07  -0.02
  31   1     0.01   0.01   0.01     0.01  -0.15  -0.11    -0.05   0.01   0.02
  32   1     0.01   0.01   0.03    -0.06   0.11   0.17    -0.09   0.13   0.13
                     49                     50                     51
                        a                      a                      a 
 Frequencies --  1108.8994              1143.5339              1265.9868
 Red. masses --    99.0000                99.0000                99.0000
 Frc consts  --    99.0000                99.0000                99.0000
 IR Inten    --    99.0000                99.0000                99.0000
 Raman Activ --     0.0000                 0.0000                 0.0000
 Depolar     --     0.0000                 0.0000                 0.0000
 Atom AN      X      Y      Z        X      Y      Z        X      Y      Z
   1   6    -0.08  -0.23   0.04    -0.07   0.12  -0.02    -0.02   0.03  -0.14
   2   6     0.18   0.22  -0.03     0.11  -0.25   0.04     0.08  -0.05   0.04
   3   6    -0.08  -0.12   0.02    -0.11   0.26  -0.05     0.08   0.05   0.14
   4   6    -0.06   0.24  -0.05     0.04  -0.22   0.04     0.08   0.02  -0.17
   5   6     0.35   0.05   0.01    -0.06   0.22  -0.04     0.04  -0.07   0.04
   6   6    -0.29  -0.07  -0.01     0.05  -0.19   0.03    -0.06   0.09   0.13
   7   6     0.26   0.03   0.03     0.08   0.33  -0.04    -0.07  -0.09  -0.17
   8   6     0.01  -0.20   0.03    -0.25  -0.23  -0.04    -0.06   0.02   0.03
   9   6     0.00   0.19   0.06     0.26   0.06   0.04     0.07   0.04   0.05
  10   6    -0.05  -0.12  -0.09    -0.15  -0.04   0.00    -0.07  -0.05  -0.02
  11   1     0.05   0.07  -0.01    -0.11  -0.13   0.02    -0.04  -0.04   0.05
  12   1    -0.14  -0.05   0.01     0.12   0.01  -0.01     0.10   0.08   0.00
  13   1    -0.14  -0.05  -0.00     0.12   0.02   0.01    -0.05  -0.08   0.05
  14   1     0.05   0.06  -0.01     0.11  -0.05   0.01     0.21   0.02  -0.00
  15   1     0.05   0.06  -0.01     0.11  -0.05   0.01    -0.38  -0.06  -0.00
  16   1    -0.09  -0.03  -0.00    -0.02   0.06  -0.01    -0.15   0.06  -0.04
  17   1    -0.10  -0.03   0.01    -0.02   0.06  -0.01    -0.17  -0.09  -0.01
  18   1    -0.11   0.06  -0.02     0.05  -0.05   0.01    -0.11  -0.08   0.04
  19   1    -0.11   0.06  -0.01     0.05  -0.05   0.01    -0.17   0.08   0.00
  20   1     0.11   0.02   0.00    -0.02   0.05  -0.01     0.23  -0.01   0.01
  21   1     0.12   0.02  -0.00    -0.02   0.05  -0.01    -0.32  -0.03  -0.02
  22   1    -0.26  -0.03  -0.01    -0.01  -0.04   0.01     0.12  -0.06  -0.01
  23   1    -0.24  -0.04  -0.01     0.00  -0.04   0.01     0.02   0.09  -0.03
  24   1     0.10   0.02   0.00     0.07   0.10  -0.02     0.14  -0.09   0.05
  25   1     0.06  -0.02  -0.00     0.04   0.07  -0.02     0.12   0.10   0.02
  26   1    -0.12  -0.04   0.01    -0.25  -0.03  -0.01    -0.15  -0.04  -0.02
  27   1    -0.09  -0.08   0.02    -0.14  -0.09   0.01     0.36   0.07   0.01
  28   1    -0.13   0.06   0.02    -0.02  -0.07  -0.03     0.04  -0.04  -0.00
  29   1     0.03   0.01   0.09     0.14  -0.07   0.09    -0.11   0.13   0.09
  30   1     0.01   0.04   0.02     0.00   0.14   0.10    -0.00   0.03   0.02
  31   1     0.04   0.00  -0.01     0.07   0.03   0.02     0.03   0.01   0.01
  32   1     0.07  -0.10  -0.10     0.10  -0.12  -0.10     0.04  -0.06  -0.05
                     52                     53                     54
                        a                      a                      a 
 Frequencies --  1098.3075              1106.6951              1135.2284
 Red. masses --    99.0000                99.0000                99.0000
 Frc consts  --    99.0000                99.0000                99.0000
 IR Inten    --    99.0000                99.0000                99.0000
 Raman Activ --     0.0000                 0.0000                 0.0000
 Depolar     --     0.0000                 0.0000                 0.0000
 Atom AN      X      Y      Z        X      Y      Z        X      Y      Z
   1   6    -0.21  -0.27   0.04    -0.00  -0.08   0.01     0.08  -0.07   0.01
   2   6     0.36   0.21  -0.02     0.09   0.02  -0.00    -0.13   0.19  -0.03
   3   6    -0.06   0.06  -0.02    -0.30  -0.25   0.04     0.12  -0.22   0.04
   4   6    -0.18   0.09  -0.02     0.49   0.12  -0.00     0.07   0.10  -0.01
   5   6     0.04  -0.23   0.04    -0.33   0.04  -0.02    -0.08  -0.13   0.01
   6   6     0.40  -0.06   0.05     0.08   0.15  -0.02     0.04   0.18  -0.01
   7   6    -0.32   0.14  -0.06     0.08   0.02   0.01     0.21   0.05  -0.04
   8   6    -0.02   0.06  -0.02     0.06  -0.07   0.03    -0.37   0.03  -0.03
   9   6     0.10  -0.02  -0.01    -0.07   0.13   0.04     0.28  -0.28  -0.10
  10   6    -0.05   0.02   0.02     0.01  -0.09  -0.07    -0.07   0.16   0.20
  11   1    -0.02  -0.01   0.00     0.03   0.03  -0.01     0.09   0.11  -0.02
  12   1    -0.13  -0.08   0.01    -0.05  -0.02   0.00    -0.09  -0.00   0.01
  13   1    -0.13  -0.08   0.01    -0.05  -0.02  -0.00    -0.09  -0.01  -0.01
  14   1     0.16   0.06  -0.01     0.07   0.00   0.01    -0.12   0.04  -0.01
  15   1     0.16   0.06  -0.01     0.07   0.00  -0.00    -0.12   0.04  -0.01
  16   1    -0.07   0.02  -0.01    -0.21  -0.08   0.01     0.00  -0.06   0.01
  17   1    -0.07   0.03   0.00    -0.21  -0.08   0.01     0.01  -0.06   0.01
  18   1    -0.07   0.02  -0.01     0.25   0.04   0.01    -0.02   0.02  -0.00
  19   1    -0.07   0.02  -0.01     0.25   0.04   0.00    -0.01   0.01  -0.01
  20   1    -0.04  -0.07   0.01    -0.23   0.01  -0.01    -0.07  -0.02   0.01
  21   1    -0.06  -0.08   0.02    -0.22   0.01  -0.01    -0.09  -0.04   0.00
  22   1     0.17  -0.02   0.01     0.04   0.05  -0.00    -0.02   0.03  -0.01
  23   1     0.13  -0.01   0.01     0.05   0.05  -0.01    -0.05   0.06  -0.02
  24   1    -0.19   0.02  -0.02    -0.01   0.01  -0.00     0.05   0.00   0.00
  25   1    -0.17   0.04  -0.01    -0.03  -0.00  -0.00     0.13   0.06   0.01
  26   1     0.01   0.02  -0.00    -0.00  -0.01   0.01    -0.22  -0.04  -0.03
  27   1    -0.00   0.02  -0.01    -0.02  -0.02   0.01    -0.20   0.01  -0.04
  28   1     0.01  -0.03  -0.01    -0.09   0.07   0.02     0.20  -0.21  -0.08
  29   1     0.10  -0.07  -0.00    -0.02   0.04   0.04     0.15  -0.15  -0.05
  30   1     0.00   0.07   0.05     0.01  -0.01  -0.02    -0.01   0.06   0.06
  31   1     0.02   0.02   0.01     0.01  -0.01  -0.01    -0.01   0.07   0.07
  32   1     0.03  -0.03  -0.02     0.02  -0.04  -0.05     0.00   0.03   0.04
                     55                     56                     57
                        a                      a                      a 
 Frequencies --  1229.4158              1286.1503              1274.2607
 Red. masses --    99.0000                99.0000                99.0000
 Frc consts  --    99.0000                99.0000                99.0000
 IR Inten    --    99.0000                99.0000                99.0000
 Raman Activ --     0.0000                 0.0000                 0.0000
 Depolar     --     0.0000                 0.0000                 0.0000
 Atom AN      X      Y      Z        X      Y      Z        X      Y      Z
   1   6     0.04  -0.07   0.07    -0.01   0.01  -0.08    -0.01   0.02  -0.02
   2   6    -0.08   0.12  -0.09     0.05  -0.03  -0.09     0.04  -0.01   0.11
   3   6    -0.08  -0.13   0.04     0.05   0.02   0.13     0.04   0.02   0.05
   4   6    -0.15   0.07   0.01     0.01   0.05   0.09     0.03   0.02  -0.06
   5   6    -0.16  -0.05  -0.06    -0.03  -0.04  -0.05     0.00  -0.03   0.03
   6   6    -0.16  -0.03   0.07    -0.05   0.01   0.05    -0.04   0.03   0.02
   7   6    -0.13   0.06  -0.08    -0.04   0.06   0.09    -0.03  -0.03  -0.12
   8   6    -0.07  -0.09   0.03    -0.02  -0.09  -0.08    -0.03  -0.03  -0.03
   9   6     0.08   0.11  -0.04    -0.03  -0.00  -0.06     0.03  -0.01   0.00
  10   6    -0.07  -0.08   0.04     0.05   0.06   0.01    -0.01   0.03  -0.01
  11   1     0.06   0.07  -0.03    -0.02  -0.02   0.01    -0.02  -0.02   0.03
  12   1    -0.10  -0.04   0.00     0.06   0.04  -0.00     0.02   0.01   0.00
  13   1    -0.02   0.03  -0.03    -0.03  -0.04   0.02     0.01  -0.01   0.01
  14   1     0.01  -0.01   0.02     0.27  -0.03   0.02    -0.15   0.03  -0.02
  15   1     0.09   0.08  -0.00    -0.39   0.02   0.00     0.06  -0.06  -0.00
  16   1     0.14  -0.00  -0.00    -0.37   0.03  -0.03     0.24   0.05  -0.01
  17   1     0.23  -0.02   0.01     0.21  -0.05  -0.00    -0.41  -0.06  -0.01
  18   1     0.19   0.04  -0.00    -0.08   0.04  -0.02    -0.35  -0.05   0.01
  19   1     0.31   0.03   0.00     0.02  -0.05  -0.00     0.23   0.05   0.01
  20   1     0.31   0.06   0.02    -0.03   0.02   0.01    -0.25  -0.04  -0.01
  21   1     0.27  -0.01   0.02     0.12  -0.02   0.02     0.25   0.03  -0.00
  22   1     0.29  -0.03   0.01     0.11  -0.01   0.01     0.40   0.03   0.01
  23   1     0.28   0.06  -0.01     0.05   0.03  -0.01    -0.30  -0.01  -0.02
  24   1     0.26   0.01   0.03     0.33   0.09  -0.01     0.30  -0.03   0.04
  25   1     0.18   0.07   0.01    -0.19  -0.06  -0.01    -0.16   0.05  -0.00
  26   1     0.06  -0.02   0.01     0.30   0.07   0.03     0.04   0.01   0.00
  27   1     0.16   0.01   0.01    -0.31  -0.09   0.00     0.02  -0.01   0.01
  28   1    -0.02  -0.07  -0.05    -0.09   0.07   0.01    -0.04   0.04   0.02
  29   1    -0.05   0.09   0.12     0.15  -0.15  -0.08     0.01  -0.01  -0.01
  30   1     0.01   0.03  -0.01    -0.01  -0.05  -0.02    -0.01  -0.02   0.00
  31   1     0.01   0.07   0.04    -0.02  -0.02  -0.02     0.01  -0.02  -0.01
  32   1     0.05  -0.07  -0.09    -0.02   0.04   0.04     0.01  -0.00   0.01
                     58                     59                     60
                        a                      a                      a 
 Frequencies --  1281.0406              1298.4999              1293.8381
 Red. masses --    99.0000                99.0000                99.0000
 Frc consts  --    99.0000                99.0000                99.0000
 IR Inten    --    99.0000                99.0000                99.0000
 Raman Activ --     0.0000                 0.0000                 0.0000
 Depolar     --     0.0000                 0.0000                 0.0000
 Atom AN      X      Y      Z        X      Y      Z        X      Y      Z
   1   6    -0.04   0.08   0.06     0.00  -0.01  -0.04    -0.01   0.01  -0.05
   2   6     0.12  -0.06   0.00     0.00  -0.01  -0.07     0.03  -0.00   0.06
   3   6     0.14  -0.01  -0.13    -0.00   0.01   0.09     0.03   0.02   0.14
   4   6     0.07   0.09   0.03    -0.01   0.03   0.17     0.00   0.01  -0.07
   5   6    -0.04  -0.08   0.09    -0.00   0.00  -0.03    -0.01  -0.06  -0.21
   6   6    -0.13   0.01  -0.11     0.02  -0.04  -0.19    -0.02  -0.01  -0.02
   7   6    -0.11   0.05  -0.03     0.02  -0.02  -0.06    -0.03   0.06   0.15
   8   6    -0.06  -0.10   0.13     0.01   0.05   0.10    -0.01  -0.04   0.03
   9   6    -0.02  -0.01  -0.01     0.02  -0.01   0.04    -0.04   0.02  -0.02
  10   6     0.06   0.08  -0.06    -0.02  -0.03  -0.02     0.04   0.01  -0.00
  11   1    -0.06  -0.07  -0.02    -0.00   0.00   0.00    -0.02  -0.01   0.03
  12   1    -0.01  -0.05  -0.02     0.03   0.02   0.00     0.03   0.03   0.00
  13   1     0.07   0.04  -0.00    -0.03  -0.02   0.01    -0.02  -0.03   0.02
  14   1    -0.33  -0.04  -0.01     0.21  -0.02   0.02     0.01   0.03  -0.01
  15   1     0.04  -0.01   0.00    -0.21   0.02   0.00    -0.09  -0.04   0.00
  16   1    -0.25  -0.09   0.02    -0.20   0.03  -0.02     0.18   0.08  -0.03
  17   1    -0.19   0.06   0.00     0.20  -0.03   0.00    -0.28  -0.10  -0.01
  18   1     0.05   0.04  -0.01    -0.17   0.06  -0.04    -0.37  -0.06   0.00
  19   1    -0.30  -0.04  -0.02     0.19  -0.07   0.00     0.35   0.07   0.01
  20   1     0.03  -0.05   0.01    -0.39  -0.02  -0.01     0.08   0.12   0.01
  21   1     0.10   0.03  -0.02     0.39   0.02   0.02    -0.01  -0.11   0.04
  22   1     0.19   0.08   0.01     0.05   0.10   0.00    -0.35  -0.02  -0.02
  23   1     0.21  -0.02   0.03    -0.08  -0.10   0.03     0.44   0.03   0.02
  24   1     0.01   0.01   0.01    -0.32  -0.06   0.00    -0.15   0.07  -0.04
  25   1     0.40   0.05   0.01     0.27   0.05   0.01     0.22  -0.06   0.00
  26   1     0.02  -0.08   0.01    -0.23  -0.08  -0.02     0.08  -0.00   0.01
  27   1     0.06   0.03  -0.01     0.22   0.08  -0.01    -0.09  -0.01  -0.01
  28   1    -0.20   0.21   0.08     0.02   0.00   0.01    -0.03   0.03   0.01
  29   1     0.20  -0.20  -0.07    -0.06   0.07   0.04     0.09  -0.10  -0.03
  30   1    -0.01  -0.03   0.02     0.00   0.03   0.02     0.01  -0.01  -0.01
  31   1     0.00  -0.07  -0.06     0.01   0.00   0.00    -0.01  -0.01  -0.01
  32   1    -0.03   0.05   0.08     0.00  -0.01  -0.01    -0.02   0.03   0.02
                     61                     62                     63
                        a                      a                      a 
 Frequencies --  1315.1043              1353.9852              1347.1253
 Red. masses --    99.0000                99.0000                99.0000
 Frc consts  --    99.0000                99.0000                99.0000
 IR Inten    --    99.0000                99.0000                99.0000
 Raman Activ --     0.0000                 0.0000                 0.0000
 Depolar     --     0.0000                 0.0000                 0.0000
 Atom AN      X      Y      Z        X      Y      Z        X      Y      Z
   1   6     0.04  -0.09   0.01     0.01  -0.01   0.00     0.04  -0.07   0.01
   2   6    -0.22   0.02  -0.01    -0.05  -0.01  -0.00    -0.27  -0.03  -0.00
   3   6    -0.14   0.06  -0.01     0.01   0.01  -0.00     0.01   0.07  -0.01
   4   6     0.10  -0.08   0.03     0.04   0.01   0.00     0.23   0.03   0.00
   5   6     0.20   0.00   0.00    -0.03  -0.01   0.01    -0.02  -0.08   0.01
   6   6     0.04   0.10  -0.03    -0.03  -0.02   0.01    -0.24  -0.03  -0.01
   7   6    -0.17  -0.06   0.01     0.01   0.03  -0.03     0.05   0.07  -0.00
   8   6    -0.19  -0.08   0.03     0.08  -0.08  -0.08     0.24   0.05   0.02
   9   6     0.03   0.05  -0.02    -0.37   0.34   0.16     0.01  -0.10  -0.02
  10   6     0.01   0.04  -0.02     0.11  -0.00   0.08    -0.01  -0.02  -0.01
  11   1     0.08   0.10  -0.01     0.01   0.02  -0.00     0.08   0.09  -0.01
  12   1    -0.02   0.03   0.02     0.00   0.01   0.00     0.01   0.04   0.03
  13   1    -0.02   0.01  -0.03     0.00   0.01  -0.01     0.01   0.03  -0.04
  14   1     0.28   0.03   0.00     0.05   0.01  -0.00     0.29   0.03  -0.00
  15   1     0.25   0.03  -0.00     0.05   0.01   0.00     0.28   0.03   0.01
  16   1     0.19   0.02   0.01    -0.01  -0.00   0.00    -0.02  -0.00   0.02
  17   1     0.22   0.01  -0.01    -0.01  -0.00  -0.00    -0.02  -0.01  -0.02
  18   1    -0.15  -0.02  -0.02    -0.05  -0.00   0.00    -0.29  -0.02  -0.01
  19   1    -0.12  -0.02   0.01    -0.05  -0.01  -0.00    -0.27  -0.02  -0.01
  20   1    -0.31  -0.02  -0.01     0.03   0.00   0.00     0.03   0.01   0.02
  21   1    -0.27  -0.03  -0.01     0.04   0.01  -0.00     0.03   0.00  -0.01
  22   1    -0.07   0.00  -0.02     0.07   0.00   0.00     0.27   0.02   0.01
  23   1    -0.05  -0.00   0.01     0.01   0.00  -0.00     0.30   0.03   0.01
  24   1     0.24   0.02   0.00     0.01  -0.01   0.00    -0.06  -0.00   0.01
  25   1     0.29   0.03   0.02    -0.02   0.01  -0.01    -0.07  -0.02  -0.02
  26   1     0.25  -0.00   0.03    -0.19   0.01  -0.02    -0.25  -0.01  -0.02
  27   1     0.20   0.02   0.01     0.15  -0.05   0.05    -0.30  -0.02  -0.04
  28   1    -0.11   0.09   0.03     0.38  -0.36  -0.13     0.01   0.00   0.01
  29   1     0.14  -0.12  -0.01     0.33  -0.33  -0.14    -0.14   0.12   0.01
  30   1    -0.01  -0.02  -0.01     0.02  -0.14  -0.16     0.00   0.03   0.04
  31   1     0.01  -0.04  -0.02    -0.05  -0.08  -0.02    -0.01   0.04   0.02
  32   1     0.01   0.00   0.01     0.01   0.01  -0.09    -0.02   0.01   0.02
                     64                     65                     66
                        a                      a                      a 
 Frequencies --  1370.6902              1379.5916              1378.5965
 Red. masses --    99.0000                99.0000                99.0000
 Frc consts  --    99.0000                99.0000                99.0000
 IR Inten    --    99.0000                99.0000                99.0000
 Raman Activ --     0.0000                 0.0000                 0.0000
 Depolar     --     0.0000                 0.0000                 0.0000
 Atom AN      X      Y      Z        X      Y      Z        X      Y      Z
   1   6    -0.03   0.05  -0.01     0.04  -0.01   0.00     0.01   0.01  -0.00
   2   6     0.27   0.05  -0.00    -0.23  -0.04   0.00    -0.01  -0.00  -0.00
   3   6    -0.24  -0.04   0.00     0.36   0.02   0.01     0.06  -0.00   0.00
   4   6    -0.04  -0.05   0.01    -0.34  -0.02  -0.01    -0.18  -0.03  -0.00
   5   6     0.25   0.01   0.01     0.17   0.04   0.00     0.30   0.02   0.01
   6   6    -0.13   0.03  -0.01     0.04   0.03  -0.00    -0.37  -0.03  -0.02
   7   6    -0.17   0.02  -0.02    -0.18  -0.01  -0.01     0.33   0.04   0.02
   8   6     0.29   0.01   0.02     0.18   0.00   0.02    -0.23  -0.01  -0.02
   9   6    -0.07  -0.02   0.00    -0.04  -0.02  -0.00     0.03   0.03   0.01
  10   6     0.02  -0.01   0.00     0.01  -0.00   0.00    -0.00  -0.01  -0.00
  11   1    -0.06  -0.07   0.01     0.02   0.02  -0.00    -0.01  -0.02   0.00
  12   1    -0.01  -0.04  -0.02    -0.01   0.02   0.01    -0.01  -0.01  -0.00
  13   1    -0.01  -0.03   0.03    -0.01   0.02  -0.02    -0.01  -0.00   0.00
  14   1    -0.25  -0.03   0.01     0.18   0.02  -0.01    -0.01  -0.00  -0.00
  15   1    -0.25  -0.03  -0.01     0.18   0.03   0.01    -0.01  -0.00   0.00
  16   1     0.23   0.03  -0.01    -0.30  -0.02  -0.01    -0.04   0.00  -0.01
  17   1     0.23   0.03   0.01    -0.31  -0.02  -0.00    -0.04   0.00   0.00
  18   1     0.05   0.01  -0.02     0.29   0.02   0.01     0.13   0.02  -0.00
  19   1     0.05   0.02   0.02     0.29   0.02   0.00     0.13   0.02   0.01
  20   1    -0.27  -0.02  -0.01    -0.14  -0.02  -0.01    -0.25  -0.02  -0.00
  21   1    -0.26  -0.02  -0.01    -0.14  -0.02   0.01    -0.24  -0.02  -0.01
  22   1     0.13  -0.00  -0.01    -0.05  -0.01  -0.01     0.30   0.03   0.01
  23   1     0.13   0.01   0.02    -0.05  -0.01   0.01     0.30   0.03   0.01
  24   1     0.18   0.01   0.02     0.17   0.01   0.01    -0.27  -0.02  -0.00
  25   1     0.17   0.01  -0.00     0.17   0.01   0.01    -0.28  -0.03  -0.02
  26   1    -0.28  -0.00  -0.02    -0.16  -0.00  -0.01     0.17  -0.00   0.01
  27   1    -0.27  -0.02  -0.04    -0.16  -0.01  -0.03     0.19   0.01   0.04
  28   1     0.07  -0.05  -0.01     0.03  -0.01  -0.00    -0.02  -0.00  -0.00
  29   1    -0.06   0.04  -0.01    -0.04   0.02  -0.00     0.05  -0.04  -0.01
  30   1    -0.00  -0.02   0.01    -0.01  -0.01   0.01     0.01   0.03  -0.01
  31   1    -0.02   0.02   0.01    -0.01   0.01   0.00     0.01  -0.01  -0.00
  32   1    -0.01   0.01   0.01    -0.00   0.00   0.01    -0.01   0.01  -0.01
                     67                     68                     69
                        a                      a                      a 
 Frequencies --  1415.4521              1415.9234              2955.0898
 Red. masses --    99.0000                99.0000                99.0000
 Frc consts  --    99.0000                99.0000                99.0000
 IR Inten    --    99.0000                99.0000                99.0000
 Raman Activ --     0.0000                 0.0000                 0.0000
 Depolar     --     0.0000                 0.0000                 0.0000
 Atom AN      X      Y      Z        X      Y      Z        X      Y      Z
   1   6    -0.01  -0.01   0.00     0.35   0.25  -0.03    -0.00   0.00   0.00
   2   6     0.00  -0.00   0.00    -0.08  -0.00  -0.00     0.00  -0.01  -0.08
   3   6     0.00  -0.00   0.00    -0.00   0.02  -0.00    -0.00   0.02   0.16
   4   6     0.00   0.00  -0.00     0.03  -0.01   0.00     0.00  -0.02  -0.10
   5   6    -0.01   0.00   0.00    -0.02  -0.00  -0.00     0.00  -0.01  -0.06
   6   6     0.01   0.01   0.01     0.00  -0.00   0.00    -0.01   0.03   0.15
   7   6    -0.00  -0.02  -0.00     0.00  -0.00  -0.00     0.00   0.00  -0.10
   8   6    -0.03  -0.04  -0.02    -0.00  -0.00  -0.00    -0.01   0.02   0.06
   9   6    -0.07   0.08   0.02    -0.00   0.00   0.00    -0.01  -0.00  -0.00
  10   6     0.13  -0.30  -0.28     0.00  -0.01  -0.01     0.00   0.00  -0.00
  11   1     0.01   0.01  -0.00    -0.24  -0.44   0.07     0.00  -0.00   0.00
  12   1     0.01   0.01   0.00    -0.44  -0.22  -0.12     0.00   0.01  -0.01
  13   1     0.02   0.01  -0.01    -0.45  -0.18   0.17    -0.00  -0.01  -0.01
  14   1    -0.00   0.00  -0.00     0.08  -0.03   0.03    -0.01   0.14   0.13
  15   1    -0.00   0.00   0.00     0.08  -0.04  -0.02     0.01  -0.09   0.17
  16   1    -0.00  -0.00  -0.00     0.01   0.01  -0.00     0.03  -0.27  -0.25
  17   1    -0.00  -0.00   0.00     0.01   0.01  -0.00    -0.01   0.18  -0.34
  18   1     0.00  -0.00   0.00    -0.03  -0.00  -0.00    -0.02   0.18   0.16
  19   1    -0.00   0.00  -0.00    -0.03  -0.00  -0.00     0.00  -0.11   0.20
  20   1     0.01   0.00   0.00     0.01   0.00   0.00    -0.00  -0.07   0.12
  21   1     0.00   0.00   0.00     0.01   0.00  -0.00    -0.01   0.11   0.10
  22   1    -0.00  -0.01  -0.00    -0.00  -0.00   0.00    -0.00   0.16  -0.31
  23   1    -0.02   0.00  -0.00    -0.00  -0.00  -0.00     0.03  -0.27  -0.24
  24   1     0.05   0.02  -0.02     0.00   0.00  -0.00    -0.02   0.12   0.10
  25   1    -0.01   0.03   0.01    -0.00   0.00   0.00    -0.00  -0.13   0.27
  26   1     0.01   0.04   0.01     0.00   0.00   0.00     0.01   0.06  -0.12
  27   1     0.06   0.01  -0.01     0.00   0.00  -0.00     0.02  -0.12  -0.10
  28   1     0.10  -0.03  -0.01     0.00  -0.00  -0.00    -0.00  -0.01   0.01
  29   1     0.09  -0.08   0.03     0.00  -0.00   0.00     0.02   0.02   0.00
  30   1     0.03   0.29   0.40     0.00   0.01   0.01     0.00  -0.00   0.00
  31   1    -0.16   0.46   0.17    -0.01   0.02   0.01     0.00  -0.00   0.00
  32   1    -0.28   0.23   0.34    -0.01   0.01   0.01    -0.00  -0.00  -0.00
                     70                     71                     72
                        a                      a                      a 
 Frequencies --  2953.0654              2956.9125              2959.9576
 Red. masses --    99.0000                99.0000                99.0000
 Frc consts  --    99.0000                99.0000                99.0000
 IR Inten    --    99.0000                99.0000                99.0000
 Raman Activ --     0.0000                 0.0000                 0.0000
 Depolar     --     0.0000                 0.0000                 0.0000
 Atom AN      X      Y      Z        X      Y      Z        X      Y      Z
   1   6    -0.00   0.00   0.00    -0.00   0.00   0.00    -0.00   0.00   0.01
   2   6     0.00  -0.00  -0.03     0.00  -0.01  -0.06     0.00  -0.02  -0.13
   3   6    -0.00   0.01   0.09    -0.00   0.01   0.09    -0.00   0.01   0.10
   4   6     0.01  -0.03  -0.15    -0.00  -0.00   0.00    -0.00   0.02   0.12
   5   6    -0.01   0.03   0.17     0.00  -0.01  -0.08     0.00  -0.01  -0.08
   6   6     0.01  -0.02  -0.12    -0.00   0.01   0.02     0.01  -0.03  -0.13
   7   6    -0.00  -0.00   0.03    -0.01  -0.00   0.12    -0.00  -0.01   0.06
   8   6     0.00  -0.00  -0.00     0.03  -0.07  -0.21    -0.01   0.04   0.11
   9   6     0.00   0.00  -0.00     0.01  -0.01   0.03     0.02   0.04  -0.05
  10   6    -0.00  -0.00   0.00     0.00  -0.00   0.00    -0.00  -0.00   0.00
  11   1     0.00   0.00   0.00     0.00   0.00   0.00     0.00   0.00   0.00
  12   1     0.00   0.00  -0.00     0.00   0.01  -0.01     0.00   0.01  -0.02
  13   1    -0.00  -0.00  -0.00    -0.00  -0.01  -0.01     0.00  -0.02  -0.02
  14   1    -0.01   0.05   0.05    -0.01   0.11   0.10    -0.02   0.23   0.22
  15   1     0.00  -0.03   0.06     0.00  -0.07   0.12     0.01  -0.14   0.27
  16   1     0.01  -0.17  -0.15     0.01  -0.15  -0.14     0.02  -0.15  -0.14
  17   1    -0.01   0.11  -0.20    -0.01   0.10  -0.18    -0.01   0.11  -0.20
  18   1    -0.03   0.28   0.25     0.00   0.00   0.00     0.02  -0.21  -0.19
  19   1     0.01  -0.17   0.33    -0.00   0.00  -0.00    -0.01   0.12  -0.23
  20   1    -0.01   0.19  -0.37     0.00  -0.09   0.17     0.00  -0.09   0.17
  21   1     0.03  -0.30  -0.28    -0.01   0.12   0.11    -0.01   0.11   0.10
  22   1    -0.00  -0.13   0.25     0.00   0.01  -0.01     0.00  -0.13   0.25
  23   1    -0.03   0.22   0.20     0.00  -0.05  -0.05    -0.03   0.24   0.22
  24   1     0.01  -0.05  -0.04     0.02  -0.16  -0.13     0.01  -0.04  -0.03
  25   1    -0.00   0.05  -0.10     0.00   0.16  -0.32     0.00   0.08  -0.18
  26   1    -0.00  -0.01   0.01    -0.02  -0.19   0.41     0.01   0.09  -0.21
  27   1    -0.00   0.01   0.00    -0.08   0.44   0.35     0.04  -0.22  -0.18
  28   1    -0.00  -0.00   0.01     0.01   0.06  -0.13    -0.01  -0.09   0.19
  29   1    -0.01  -0.01  -0.00    -0.03  -0.03   0.00    -0.07  -0.07  -0.01
  30   1    -0.00   0.00  -0.00    -0.00   0.00  -0.00     0.00  -0.00   0.00
  31   1     0.00   0.00  -0.00    -0.00   0.00  -0.00     0.00   0.00  -0.01
  32   1     0.00   0.00   0.00    -0.00  -0.00   0.00     0.01   0.01   0.00
                     73                     74                     75
                        a                      a                      a 
 Frequencies --  2962.3203              2965.9575              3030.2582
 Red. masses --    99.0000                99.0000                99.0000
 Frc consts  --    99.0000                99.0000                99.0000
 IR Inten    --    99.0000                99.0000                99.0000
 Raman Activ --     0.0000                 0.0000                 0.0000
 Depolar     --     0.0000                 0.0000                 0.0000
 Atom AN      X      Y      Z        X      Y      Z        X      Y      Z
   1   6     0.00  -0.00  -0.00     0.00  -0.00  -0.01     0.00  -0.03  -0.29
   2   6    -0.00   0.01   0.05    -0.00   0.03   0.15     0.00  -0.01  -0.05
   3   6     0.00  -0.00  -0.01    -0.00   0.00   0.04     0.00  -0.00  -0.01
   4   6     0.00  -0.01  -0.05     0.00  -0.03  -0.10     0.00  -0.00  -0.01
   5   6     0.00  -0.00  -0.01     0.00  -0.00  -0.14     0.00  -0.00  -0.00
   6   6    -0.00   0.02   0.04     0.00  -0.01  -0.02     0.00  -0.00  -0.00
   7   6    -0.00  -0.02   0.04    -0.00  -0.03   0.13     0.00  -0.00  -0.00
   8   6     0.01  -0.05   0.01    -0.01   0.07   0.06    -0.00  -0.00   0.00
   9   6     0.14   0.19  -0.12    -0.04  -0.03  -0.01     0.00  -0.00   0.00
  10   6    -0.01  -0.01   0.01     0.00   0.00  -0.00     0.01  -0.01   0.01
  11   1    -0.00   0.00  -0.00    -0.00  -0.00  -0.00     0.02  -0.02  -0.04
  12   1    -0.00  -0.01   0.01     0.00  -0.02   0.04     0.02  -0.33   0.62
  13   1    -0.00   0.01   0.01    -0.00   0.03   0.03    -0.04   0.46   0.44
  14   1     0.01  -0.08  -0.08     0.02  -0.26  -0.25    -0.01   0.06   0.06
  15   1    -0.00   0.05  -0.10    -0.01   0.16  -0.29     0.00  -0.04   0.08
  16   1    -0.00   0.02   0.02     0.00  -0.05  -0.05    -0.00   0.02   0.02
  17   1     0.00  -0.02   0.03    -0.00   0.04  -0.08     0.00  -0.02   0.03
  18   1    -0.01   0.09   0.08    -0.02   0.19   0.18    -0.00   0.01   0.01
  19   1     0.00  -0.04   0.08     0.00  -0.10   0.19    -0.00  -0.01   0.01
  20   1     0.00  -0.01   0.02     0.00  -0.16   0.33     0.00  -0.00   0.01
  21   1    -0.00   0.02   0.02    -0.02   0.17   0.15    -0.00   0.00   0.00
  22   1    -0.00   0.02  -0.04     0.00  -0.02   0.03    -0.00  -0.00   0.00
  23   1     0.01  -0.11  -0.10    -0.01   0.05   0.05    -0.00   0.00   0.00
  24   1    -0.00  -0.01  -0.00     0.01  -0.08  -0.05    -0.00   0.00   0.00
  25   1    -0.00   0.06  -0.13     0.00   0.18  -0.40     0.00  -0.00   0.00
  26   1     0.01   0.07  -0.19    -0.00   0.01   0.00    -0.00   0.00  -0.00
  27   1    -0.03   0.14   0.13     0.05  -0.26  -0.22     0.00  -0.00  -0.00
  28   1    -0.02  -0.20   0.48    -0.01  -0.02   0.02     0.00   0.00  -0.00
  29   1    -0.48  -0.48  -0.03     0.14   0.14   0.00    -0.00  -0.00   0.00
  30   1     0.01  -0.01   0.01    -0.01   0.00  -0.00    -0.03   0.01  -0.01
  31   1    -0.00   0.02  -0.05     0.00  -0.00   0.01     0.00   0.02  -0.04
  32   1     0.04   0.05   0.00    -0.01  -0.01  -0.00    -0.00  -0.00   0.00
                     76                     77                     78
                        a                      a                      a 
 Frequencies --  2971.3144              3031.1433              2979.9284
 Red. masses --    99.0000                99.0000                99.0000
 Frc consts  --    99.0000                99.0000                99.0000
 IR Inten    --    99.0000                99.0000                99.0000
 Raman Activ --     0.0000                 0.0000                 0.0000
 Depolar     --     0.0000                 0.0000                 0.0000
 Atom AN      X      Y      Z        X      Y      Z        X      Y      Z
   1   6     0.00   0.00   0.02    -0.00  -0.00  -0.02    -0.00   0.01  -0.00
   2   6     0.00  -0.02  -0.13     0.00  -0.00  -0.00     0.00  -0.06   0.01
   3   6     0.00  -0.01  -0.11     0.00  -0.00  -0.00     0.00  -0.03  -0.00
   4   6     0.00  -0.04  -0.02     0.00   0.00  -0.00    -0.00   0.02  -0.01
   5   6    -0.01   0.04   0.06     0.00  -0.00  -0.00    -0.00   0.02  -0.01
   6   6    -0.01   0.05   0.11     0.00   0.00  -0.00    -0.00   0.06  -0.02
   7   6    -0.00  -0.06   0.11     0.00  -0.00  -0.01     0.00  -0.05  -0.01
   8   6    -0.01   0.07   0.02     0.00   0.00  -0.01    -0.00   0.05   0.03
   9   6    -0.02  -0.00  -0.04    -0.01   0.01  -0.03     0.08   0.03   0.14
  10   6     0.00  -0.00   0.00    -0.13   0.13  -0.22    -0.02   0.01  -0.01
  11   1    -0.00   0.00   0.00     0.00  -0.00  -0.00     0.02  -0.01   0.00
  12   1    -0.00   0.02  -0.04     0.00  -0.02   0.03    -0.00  -0.01   0.02
  13   1     0.00  -0.03  -0.03    -0.00   0.03   0.03     0.00  -0.02  -0.02
  14   1    -0.02   0.21   0.20    -0.00   0.00   0.00    -0.01   0.13   0.14
  15   1     0.01  -0.14   0.27     0.00  -0.00   0.01    -0.00   0.07  -0.17
  16   1    -0.01   0.14   0.14    -0.00   0.00   0.00    -0.01   0.07   0.08
  17   1     0.01  -0.12   0.24     0.00  -0.00   0.00    -0.00   0.03  -0.07
  18   1    -0.01   0.13   0.13    -0.00   0.00   0.00     0.01  -0.05  -0.05
  19   1    -0.00   0.03  -0.07     0.00  -0.00   0.00     0.00  -0.04   0.10
  20   1     0.00   0.03  -0.04    -0.00  -0.00   0.00     0.00  -0.03   0.08
  21   1     0.02  -0.18  -0.18    -0.00   0.00   0.00     0.00  -0.03  -0.04
  22   1     0.00   0.08  -0.15     0.00  -0.01   0.01    -0.00  -0.10   0.23
  23   1     0.03  -0.25  -0.23    -0.00   0.00   0.00     0.02  -0.14  -0.15
  24   1    -0.00   0.03   0.05    -0.00   0.01   0.01    -0.02   0.15   0.15
  25   1     0.00   0.20  -0.44    -0.00  -0.01   0.02     0.00   0.04  -0.10
  26   1    -0.01  -0.04   0.13    -0.00  -0.02   0.05    -0.00  -0.01   0.06
  27   1     0.04  -0.21  -0.19    -0.00   0.01   0.01     0.03  -0.18  -0.15
  28   1    -0.02  -0.07   0.14    -0.01  -0.05   0.10     0.06   0.26  -0.53
  29   1     0.08   0.08  -0.00     0.02   0.02  -0.00    -0.35  -0.36   0.01
  30   1    -0.01   0.00  -0.00     0.50  -0.18   0.11     0.05  -0.02   0.01
  31   1     0.00   0.00  -0.00    -0.05  -0.31   0.71    -0.01  -0.02   0.05
  32   1    -0.00  -0.01   0.00     0.00   0.04  -0.03     0.01   0.02  -0.00
                     79                     80                     81
                        a                      a                      a 
 Frequencies --  2973.6944              2972.6011              2993.5485
 Red. masses --    99.0000                99.0000                99.0000
 Frc consts  --    99.0000                99.0000                99.0000
 IR Inten    --    99.0000                99.0000                99.0000
 Raman Activ --     0.0000                 0.0000                 0.0000
 Depolar     --     0.0000                 0.0000                 0.0000
 Atom AN      X      Y      Z        X      Y      Z        X      Y      Z
   1   6     0.00  -0.00  -0.00    -0.00   0.00   0.00    -0.01   0.01  -0.00
   2   6    -0.01   0.07   0.01    -0.00   0.02  -0.01     0.00  -0.03   0.00
   3   6     0.00  -0.03   0.03     0.01  -0.10   0.01     0.00  -0.04   0.00
   4   6     0.01  -0.13   0.04    -0.01   0.05  -0.01     0.00  -0.05   0.00
   5   6    -0.01   0.10  -0.02    -0.01   0.10  -0.00     0.01  -0.07  -0.00
   6   6    -0.00   0.04  -0.04     0.01  -0.11   0.04     0.01  -0.08  -0.01
   7   6     0.00  -0.01  -0.04     0.00  -0.00  -0.01     0.02  -0.16  -0.07
   8   6     0.00  -0.04   0.01     0.00   0.03  -0.03     0.00  -0.06  -0.01
   9   6     0.00  -0.01   0.03     0.02   0.03  -0.01    -0.01  -0.02   0.01
  10   6     0.00   0.00  -0.00    -0.00  -0.00   0.00     0.02   0.01  -0.00
  11   1    -0.01   0.01  -0.00     0.01  -0.00   0.00     0.02  -0.01   0.00
  12   1     0.00   0.00  -0.01     0.00  -0.00   0.00    -0.00  -0.01   0.02
  13   1     0.00   0.02   0.02     0.00  -0.01  -0.01     0.00  -0.02  -0.02
  14   1     0.02  -0.19  -0.20     0.01  -0.04  -0.04    -0.01   0.07   0.07
  15   1     0.00  -0.07   0.17     0.00  -0.04   0.08    -0.00   0.04  -0.08
  16   1    -0.00   0.02   0.03    -0.02   0.24   0.26    -0.01   0.09   0.10
  17   1    -0.01   0.06  -0.13    -0.01   0.13  -0.30    -0.00   0.05  -0.11
  18   1    -0.03   0.29   0.31     0.01  -0.13  -0.14    -0.01   0.13   0.13
  19   1    -0.01   0.21  -0.47    -0.00  -0.07   0.16    -0.00   0.06  -0.14
  20   1     0.00  -0.14   0.33     0.00  -0.12   0.29    -0.00   0.07  -0.18
  21   1     0.03  -0.23  -0.25     0.03  -0.26  -0.28    -0.02   0.18   0.19
  22   1    -0.00  -0.09   0.20     0.00   0.18  -0.42     0.00   0.06  -0.17
  23   1     0.01  -0.06  -0.07    -0.03   0.26   0.27    -0.03   0.20   0.20
  24   1    -0.01   0.07   0.06    -0.00   0.02   0.02    -0.06   0.49   0.49
  25   1    -0.00  -0.05   0.09     0.00  -0.02   0.04     0.00   0.08  -0.25
  26   1     0.01   0.04  -0.12    -0.01  -0.06   0.17     0.01   0.03  -0.11
  27   1    -0.02   0.10   0.09     0.01  -0.05  -0.05    -0.03   0.15   0.14
  28   1     0.01   0.04  -0.10     0.00  -0.01   0.03    -0.00   0.01  -0.02
  29   1    -0.01  -0.01   0.00    -0.09  -0.09  -0.00     0.05   0.05   0.00
  30   1     0.00  -0.00   0.00     0.00  -0.00   0.00    -0.01   0.01  -0.00
  31   1    -0.00  -0.00   0.01    -0.00   0.00  -0.01     0.00  -0.00   0.01
  32   1    -0.00  -0.00  -0.00     0.01   0.01   0.00    -0.04  -0.05   0.00
                     82                     83                     84
                        a                      a                      a 
 Frequencies --  2977.7994              2975.7616              2979.0913
 Red. masses --    99.0000                99.0000                99.0000
 Frc consts  --    99.0000                99.0000                99.0000
 IR Inten    --    99.0000                99.0000                99.0000
 Raman Activ --     0.0000                 0.0000                 0.0000
 Depolar     --     0.0000                 0.0000                 0.0000
 Atom AN      X      Y      Z        X      Y      Z        X      Y      Z
   1   6     0.00  -0.00  -0.02    -0.00   0.01  -0.00    -0.01   0.01  -0.01
   2   6    -0.00   0.03   0.11    -0.00   0.03  -0.01     0.01  -0.12   0.05
   3   6    -0.00   0.01   0.14     0.01  -0.13   0.01    -0.00   0.04   0.03
   4   6    -0.00   0.02   0.14    -0.01   0.06  -0.01    -0.01   0.04   0.03
   5   6    -0.00  -0.00   0.11     0.00  -0.02   0.01    -0.01   0.11   0.02
   6   6    -0.01   0.04   0.05    -0.01   0.09  -0.00    -0.00   0.02   0.02
   7   6     0.00  -0.04  -0.01    -0.00  -0.01   0.03     0.00  -0.03   0.01
   8   6    -0.00   0.07  -0.05     0.00  -0.06   0.04     0.00  -0.08   0.03
   9   6     0.01   0.02  -0.04    -0.04  -0.04  -0.01    -0.04  -0.04  -0.02
  10   6     0.00  -0.00   0.01     0.01   0.00  -0.00     0.01   0.00  -0.00
  11   1    -0.00   0.00  -0.00     0.00  -0.00   0.00     0.03  -0.02   0.00
  12   1     0.00  -0.03   0.05     0.00  -0.00   0.01    -0.00  -0.02   0.04
  13   1    -0.00   0.04   0.04     0.00  -0.01  -0.01    -0.00  -0.01  -0.01
  14   1     0.02  -0.21  -0.20     0.01  -0.08  -0.09    -0.02   0.24   0.27
  15   1    -0.01   0.09  -0.17     0.00  -0.06   0.13    -0.01   0.21  -0.46
  16   1     0.02  -0.19  -0.18    -0.03   0.32   0.35     0.01  -0.14  -0.15
  17   1    -0.01   0.16  -0.30    -0.01   0.18  -0.40     0.00  -0.01   0.04
  18   1     0.02  -0.21  -0.20     0.02  -0.15  -0.16     0.02  -0.14  -0.14
  19   1    -0.01   0.14  -0.28     0.00  -0.09   0.21     0.00  -0.00   0.02
  20   1    -0.00   0.14  -0.28    -0.00   0.04  -0.10     0.00  -0.10   0.24
  21   1     0.01  -0.13  -0.11    -0.01   0.04   0.05     0.03  -0.29  -0.31
  22   1     0.00   0.02  -0.02    -0.00  -0.11   0.26    -0.00   0.00   0.00
  23   1     0.02  -0.17  -0.16     0.03  -0.24  -0.25     0.01  -0.08  -0.08
  24   1    -0.02   0.12   0.12     0.00  -0.02  -0.01    -0.01   0.06   0.06
  25   1     0.00   0.04  -0.09     0.00   0.05  -0.11     0.00   0.04  -0.09
  26   1    -0.02  -0.12   0.33     0.01   0.10  -0.27     0.01   0.10  -0.27
  27   1     0.03  -0.15  -0.15    -0.02   0.12   0.11    -0.03   0.17   0.16
  28   1    -0.01  -0.07   0.15    -0.01  -0.03   0.05    -0.01  -0.05   0.08
  29   1    -0.01  -0.01  -0.01     0.17   0.17   0.00     0.17   0.17   0.00
  30   1    -0.01   0.00  -0.00    -0.01   0.00  -0.00    -0.01   0.01  -0.00
  31   1     0.00   0.01  -0.03     0.00  -0.00   0.01     0.00  -0.00   0.01
  32   1     0.00  -0.00   0.00    -0.01  -0.02  -0.00    -0.02  -0.02   0.00
                     85                     86                     87
                        a                      a                      a 
 Frequencies --  2987.5494              3032.8229              2983.3945
 Red. masses --    99.0000                99.0000                99.0000
 Frc consts  --    99.0000                99.0000                99.0000
 IR Inten    --    99.0000                99.0000                99.0000
 Raman Activ --     0.0000                 0.0000                 0.0000
 Depolar     --     0.0000                 0.0000                 0.0000
 Atom AN      X      Y      Z        X      Y      Z        X      Y      Z
   1   6    -0.01   0.02  -0.01     0.15  -0.24   0.03     0.01  -0.01  -0.00
   2   6     0.01  -0.09   0.03     0.01  -0.03   0.00    -0.01   0.08   0.01
   3   6     0.01  -0.09   0.03     0.00  -0.01   0.00    -0.01   0.06   0.03
   4   6     0.01  -0.09   0.04     0.00  -0.00   0.00    -0.00   0.03   0.05
   5   6     0.00  -0.05   0.04     0.00  -0.00   0.00    -0.00  -0.00   0.07
   6   6    -0.00  -0.03   0.05     0.00  -0.00   0.00    -0.00  -0.04   0.09
   7   6    -0.01   0.09   0.09     0.00  -0.00   0.00    -0.00  -0.00   0.11
   8   6    -0.00   0.01   0.04     0.00  -0.00   0.00    -0.00  -0.06   0.11
   9   6     0.01  -0.00   0.02     0.00   0.00  -0.00     0.01  -0.03   0.09
  10   6    -0.01  -0.00  -0.01     0.01   0.00  -0.00    -0.01   0.01  -0.02
  11   1     0.05  -0.03   0.00    -0.54   0.31  -0.06    -0.03   0.01  -0.00
  12   1    -0.00  -0.02   0.06     0.01   0.18  -0.43     0.00   0.00  -0.01
  13   1     0.00  -0.03  -0.03    -0.01   0.35   0.40    -0.00   0.03   0.03
  14   1    -0.02   0.20   0.22    -0.01   0.06   0.06     0.02  -0.20  -0.22
  15   1    -0.01   0.14  -0.31    -0.00   0.03  -0.07     0.00  -0.07   0.17
  16   1    -0.02   0.17   0.19    -0.01   0.03   0.04     0.02  -0.17  -0.17
  17   1    -0.01   0.12  -0.28    -0.00   0.02  -0.04     0.00  -0.02   0.06
  18   1    -0.02   0.18   0.20    -0.00   0.01   0.01     0.01  -0.13  -0.13
  19   1    -0.00   0.14  -0.33     0.00   0.01  -0.01    -0.00   0.03  -0.04
  20   1    -0.00   0.10  -0.21    -0.00   0.00  -0.01    -0.00   0.08  -0.16
  21   1    -0.01   0.07   0.08    -0.00   0.01   0.01     0.01  -0.08  -0.07
  22   1     0.00   0.09  -0.20     0.00   0.00  -0.00     0.00   0.16  -0.35
  23   1    -0.00   0.01   0.02    -0.00   0.00   0.00    -0.00   0.01   0.02
  24   1     0.04  -0.35  -0.33    -0.00   0.00   0.00     0.02  -0.13  -0.11
  25   1    -0.00   0.00   0.03    -0.00   0.00  -0.00     0.00   0.13  -0.28
  26   1     0.00   0.04  -0.09     0.00   0.00  -0.00     0.02   0.17  -0.45
  27   1     0.01  -0.06  -0.05    -0.00   0.00   0.00    -0.01   0.05   0.07
  28   1     0.01   0.03  -0.06    -0.00  -0.00   0.00     0.03   0.16  -0.34
  29   1    -0.03  -0.03   0.00    -0.00  -0.00  -0.00    -0.06  -0.07   0.01
  30   1     0.01  -0.01   0.00    -0.03   0.01  -0.01     0.03  -0.01   0.01
  31   1    -0.00  -0.01   0.02     0.00  -0.01   0.02    -0.00  -0.03   0.07
  32   1     0.02   0.03  -0.00    -0.01  -0.01  -0.00     0.00   0.01  -0.00
                     88                     89                     90
                        a                      a                      a 
 Frequencies --  3034.0820              3046.8771              3038.2374
 Red. masses --    99.0000                99.0000                99.0000
 Frc consts  --    99.0000                99.0000                99.0000
 IR Inten    --    99.0000                99.0000                99.0000
 Raman Activ --     0.0000                 0.0000                 0.0000
 Depolar     --     0.0000                 0.0000                 0.0000
 Atom AN      X      Y      Z        X      Y      Z        X      Y      Z
   1   6     0.00  -0.01   0.00     0.00   0.00   0.00    -0.15  -0.04  -0.00
   2   6     0.00  -0.00   0.00    -0.00   0.00   0.00    -0.01  -0.00   0.00
   3   6     0.00  -0.00   0.00    -0.00   0.00   0.00     0.00  -0.00   0.00
   4   6     0.00  -0.00   0.00    -0.00   0.00   0.00    -0.00   0.00  -0.00
   5   6     0.00  -0.00   0.00    -0.00   0.00   0.00     0.00  -0.00   0.00
   6   6     0.00  -0.00   0.00    -0.00   0.00   0.00    -0.00   0.00  -0.00
   7   6     0.00  -0.01  -0.00    -0.00   0.01   0.01     0.00  -0.00   0.00
   8   6     0.00  -0.00   0.00     0.00   0.00   0.00    -0.00   0.00  -0.00
   9   6    -0.02  -0.02   0.01     0.01   0.02  -0.00     0.00   0.00   0.00
  10   6    -0.23  -0.05   0.08     0.09   0.19   0.02     0.01   0.00  -0.00
  11   1    -0.01   0.00  -0.00    -0.00   0.00  -0.00     0.61  -0.38   0.07
  12   1    -0.00   0.01  -0.03     0.00  -0.00   0.00    -0.03   0.20  -0.42
  13   1    -0.00   0.02   0.02     0.00  -0.00  -0.00    -0.04   0.33   0.34
  14   1    -0.00   0.00   0.00     0.00  -0.00  -0.00    -0.00   0.00   0.00
  15   1    -0.00   0.00  -0.00     0.00  -0.00   0.00    -0.00   0.00  -0.00
  16   1    -0.00   0.00   0.00     0.00  -0.00  -0.00    -0.00   0.01   0.01
  17   1    -0.00   0.00  -0.00     0.00  -0.00   0.00    -0.00   0.00  -0.01
  18   1    -0.00   0.00   0.00     0.00  -0.00  -0.00     0.00  -0.00  -0.00
  19   1    -0.00   0.00  -0.00     0.00   0.00  -0.00     0.00  -0.00   0.00
  20   1     0.00   0.00  -0.00    -0.00  -0.00   0.00     0.00   0.00  -0.00
  21   1    -0.00   0.00   0.00     0.00  -0.00  -0.00    -0.00   0.00   0.00
  22   1     0.00   0.00  -0.00     0.00   0.00  -0.00     0.00  -0.00   0.00
  23   1    -0.00   0.00   0.00     0.00  -0.01  -0.01     0.00  -0.00  -0.00
  24   1    -0.00   0.02   0.02     0.01  -0.04  -0.04    -0.00   0.00   0.00
  25   1     0.00   0.01  -0.01    -0.00  -0.00   0.01    -0.00   0.00  -0.00
  26   1     0.00   0.00  -0.01     0.00   0.00   0.00    -0.00  -0.00   0.00
  27   1    -0.00   0.01   0.01     0.00  -0.01  -0.01     0.00  -0.00  -0.00
  28   1     0.00   0.01  -0.02     0.00  -0.00   0.01     0.00   0.00  -0.00
  29   1     0.05   0.05   0.00    -0.05  -0.04   0.00    -0.00  -0.00  -0.00
  30   1     0.66  -0.28   0.20     0.26  -0.07   0.07    -0.02   0.01  -0.00
  31   1    -0.01   0.22  -0.49     0.02   0.09  -0.14     0.00  -0.00   0.01
  32   1     0.17   0.22   0.01    -0.61  -0.68   0.01    -0.01  -0.01   0.00
