      -----------------------------------------------------------      
     |                   =====================                   |     
     |                           x T B                           |     
     |                   =====================                   |     
     |                         S. Grimme                         |     
     |          Mulliken Center for Theoretical Chemistry        |     
     |                    University of Bonn                     |     
      -----------------------------------------------------------      

   * xtb version 6.6.1 (8d0f1dd) compiled by 'stahn@M-Bot' on 2023-08-01

   xtb is free software: you can redistribute it and/or modify it under
   the terms of the GNU Lesser General Public License as published by
   the Free Software Foundation, either version 3 of the License, or
   (at your option) any later version.
   
   xtb is distributed in the hope that it will be useful,
   but WITHOUT ANY WARRANTY; without even the implied warranty of
   MERCHANTABILITY or FITNESS FOR A PARTICULAR PURPOSE.  See the
   GNU Lesser General Public License for more details.
   
   Cite this work as:
   * C. Bannwarth, E. Caldeweyher, S. Ehlert, A. Hansen, P. Pracht,
     J. Seibert, S. Spicher, S. Grimme, WIREs Comput. Mol. Sci., 2020, 11,
     e01493. DOI: 10.1002/wcms.1493
   
   for GFN2-xTB:
   * C. Bannwarth, S. Ehlert and S. Grimme., J. Chem. Theory Comput., 2019,
     15, 1652-1671. DOI: 10.1021/acs.jctc.8b01176
   for GFN1-xTB:
   * S. Grimme, C. Bannwarth, P. Shushkov, J. Chem. Theory Comput., 2017,
     13, 1989-2009. DOI: 10.1021/acs.jctc.7b00118
   for GFN0-xTB:
   * P. Pracht, E. Caldeweyher, S. Ehlert, S. Grimme, ChemRxiv, 2019, preprint.
     DOI: 10.26434/chemrxiv.8326202.v1
   for GFN-FF:
   * S. Spicher and S. Grimme, Angew. Chem. Int. Ed., 2020, 59, 15665-15673.
     DOI: 10.1002/anie.202004239
   
   for ALPB and GBSA implicit solvation:
   * S. Ehlert, M. Stahn, S. Spicher, S. Grimme, J. Chem. Theory Comput.,
     2021, 17, 4250-4261. DOI: 10.1021/acs.jctc.1c00471
   
   for DFT-D4:
   * E. Caldeweyher, C. Bannwarth and S. Grimme, J. Chem. Phys., 2017,
     147, 034112. DOI: 10.1063/1.4993215
   * E. Caldeweyher, S. Ehlert, A. Hansen, H. Neugebauer, S. Spicher,
     C. Bannwarth and S. Grimme, J. Chem. Phys., 2019, 150, 154122.
     DOI: 10.1063/1.5090222
   * E. Caldeweyher, J.-M. Mewes, S. Ehlert and S. Grimme, Phys. Chem. Chem. Phys.
     2020, 22, 8499-8512. DOI: 10.1039/D0CP00502A
   
   for sTDA-xTB:
   * S. Grimme and C. Bannwarth, J. Chem. Phys., 2016, 145, 054103.
     DOI: 10.1063/1.4959605
   
   in the mass-spec context:
   * V. Asgeirsson, C. Bauer and S. Grimme, Chem. Sci., 2017, 8, 4879.
     DOI: 10.1039/c7sc00601b
   * J. Koopman and S. Grimme, ACS Omega 2019, 4, 12, 15120-15133.
     DOI: 10.1021/acsomega.9b02011
   
   for metadynamics refer to:
   * S. Grimme, J. Chem. Theory Comput., 2019, 155, 2847-2862
     DOI: 10.1021/acs.jctc.9b00143
   
   for SPH calculations refer to:
   * S. Spicher and S. Grimme, J. Chem. Theory Comput., 2021, 17, 1701-1714
     DOI: 10.1021/acs.jctc.0c01306
   
   with help from (in alphabetical order)
   P. Atkinson, C. Bannwarth, F. Bohle, G. Brandenburg, E. Caldeweyher
   M. Checinski, S. Dohm, S. Ehlert, S. Ehrlich, I. Gerasimov, C. Hölzer
   A. Katbashev, J. Koopman, C. Lavigne, S. Lehtola, F. März, M. Müller,
   F. Musil, H. Neugebauer, J. Pisarek, C. Plett, P. Pracht, F. Pultar,
   J. Seibert, P. Shushkov, S. Spicher, M. Stahn, M. Steiner, T. Strunk,
   J. Stückrath, T. Rose, and J. Unsleber
   
 * started run on 2024/04/23 at 12:10:24.881     

           -------------------------------------------------
          |                Calculation Setup                |
           -------------------------------------------------

          program call               : xtb unfolded.xyz --gfn 2 --ohess -P 4
          coordinate file            : unfolded.xyz
          omp threads                :                     4

   ID    Z sym.   atoms
    1    6 C      1-10
    2    1 H      11-32

           -------------------------------------------------
          |                 G F N 2 - x T B                 |
           -------------------------------------------------

        Reference                      10.1021/acs.jctc.8b01176
      * Hamiltonian:
        H0-scaling (s, p, d)           1.850000    2.230000    2.230000
        zeta-weighting                 0.500000
      * Dispersion:
        s8                             2.700000
        a1                             0.520000
        a2                             5.000000
        s9                             5.000000
      * Repulsion:
        kExp                           1.500000    1.000000
        rExp                           1.000000
      * Coulomb:
        alpha                          2.000000
        third order                    shell-resolved
        anisotropic                    true
        a3                             3.000000
        a5                             4.000000
        cn-shift                       1.200000
        cn-exp                         4.000000
        max-rad                        5.000000


          ...................................................
          :                      SETUP                      :
          :.................................................:
          :  # basis functions                  62          :
          :  # atomic orbitals                  62          :
          :  # shells                           42          :
          :  # electrons                        62          :
          :  max. iterations                   250          :
          :  Hamiltonian                  GFN2-xTB          :
          :  restarted?                      false          :
          :  GBSA solvation                  false          :
          :  PC potential                    false          :
          :  electronic temp.          300.0000000     K    :
          :  accuracy                    1.0000000          :
          :  -> integral cutoff          0.2500000E+02      :
          :  -> integral neglect         0.1000000E-07      :
          :  -> SCF convergence          0.1000000E-05 Eh   :
          :  -> wf. convergence          0.1000000E-03 e    :
          :  Broyden damping             0.4000000          :
          ...................................................

 iter      E             dE          RMSdq      gap      omega  full diag
   1    -33.0380805 -0.330381E+02  0.256E+00   12.11       0.0  T
   2    -33.1239180 -0.858374E-01  0.141E+00   12.09       1.0  T
   3    -33.1249800 -0.106200E-02  0.745E-01   12.10       1.0  T
   4    -33.1252190 -0.239040E-03  0.849E-02   12.13       1.0  T
   5    -33.1252265 -0.747516E-05  0.443E-02   12.13       1.0  T
   6    -33.1252284 -0.186220E-05  0.245E-03   12.13       7.2  T
   7    -33.1252284 -0.436143E-07  0.108E-03   12.13      16.4  T
   8    -33.1252284 -0.343583E-08  0.311E-04   12.13      56.8  T
   9    -33.1252284 -0.280146E-09  0.102E-04   12.13     173.7  T

   *** convergence criteria satisfied after 9 iterations ***

         #    Occupation            Energy/Eh            Energy/eV
      -------------------------------------------------------------
         1        2.0000           -0.6216005             -16.9146
       ...           ...                  ...                  ...
        25        2.0000           -0.4328796             -11.7793
        26        2.0000           -0.4294175             -11.6850
        27        2.0000           -0.4222743             -11.4907
        28        2.0000           -0.4215719             -11.4716
        29        2.0000           -0.4151147             -11.2958
        30        2.0000           -0.4143765             -11.2758
        31        2.0000           -0.4122745             -11.2186 (HOMO)
        32                          0.0334483               0.9102 (LUMO)
        33                          0.0878572               2.3907
        34                          0.0936795               2.5492
        35                          0.1032548               2.8097
        36                          0.1142573               3.1091
       ...                                ...                  ...
        62                          0.3076932               8.3728
      -------------------------------------------------------------
                  HL-Gap            0.4457228 Eh           12.1287 eV
             Fermi-level           -0.1894131 Eh           -5.1542 eV

 SCC (total)                   0 d,  0 h,  0 min,  0.028 sec
 SCC setup                      ...        0 min,  0.000 sec (  1.269%)
 Dispersion                     ...        0 min,  0.000 sec (  0.802%)
 classical contributions        ...        0 min,  0.000 sec (  0.104%)
 integral evaluation            ...        0 min,  0.001 sec (  3.240%)
 iterations                     ...        0 min,  0.023 sec ( 83.762%)
 molecular gradient             ...        0 min,  0.003 sec (  9.644%)
 printout                       ...        0 min,  0.000 sec (  1.068%)

         :::::::::::::::::::::::::::::::::::::::::::::::::::::
         ::                     SUMMARY                     ::
         :::::::::::::::::::::::::::::::::::::::::::::::::::::
         :: total energy             -32.648464188693 Eh    ::
         :: gradient norm              0.028695385473 Eh/a0 ::
         :: HOMO-LUMO gap             12.128734705838 eV    ::
         ::.................................................::
         :: SCC energy               -33.125228416060 Eh    ::
         :: -> isotropic ES            0.005367052435 Eh    ::
         :: -> anisotropic ES          0.011032861402 Eh    ::
         :: -> anisotropic XC          0.019752201030 Eh    ::
         :: -> dispersion             -0.019512026341 Eh    ::
         :: repulsion energy           0.476908849408 Eh    ::
         :: add. restraining           0.000000000000 Eh    ::
         :: total charge               0.000000000000 e     ::
         :::::::::::::::::::::::::::::::::::::::::::::::::::::

      ----------------------------------------------------------- 
     |                   =====================                   |
     |                        A N C O P T                        |
     |                   =====================                   |
     |               Approximate Normal Coordinate               |
     |                Rational Function Optimizer                |
      ----------------------------------------------------------- 

          ...................................................
          :                      SETUP                      :
          :.................................................:
          :   optimization level            normal          :
          :   max. optcycles                   200          :
          :   ANC micro-cycles                  20          :
          :   degrees of freedom                90          :
          :.................................................:
          :   RF solver                   davidson          :
          :   write xtbopt.log                true          :
          :   linear?                        false          :
          :   energy convergence         0.5000000E-05 Eh   :
          :   grad. convergence          0.1000000E-02 Eh/α :
          :   maxmium RF displ.          2.0000000          :
          :   Hlow (freq-cutoff)         0.2000000E-01      :
          :   Hmax (freq-cutoff)         5.0000000          :
          :   S6 in model hess.         70.0000000          :
          ...................................................

generating ANC from model Hessian ...
Using Lindh-Hessian (1995)
 Shifting diagonal of input Hessian by   1.908643307667190E-002
 Lowest  eigenvalues of input Hessian
    0.000000    0.000000    0.000000    0.000000    0.000000    0.000000
    0.020000    0.020194    0.021710    0.022675    0.023821    0.024390
    0.025361    0.026684    0.027213    0.028430    0.031299    0.033440
 Highest eigenvalues
    1.213381    1.232838    1.248134    1.272141    1.300800    1.334381
 

........................................................................
.............................. CYCLE    1 ..............................
........................................................................

 iter      E             dE          RMSdq      gap      omega  full diag
   1    -33.1252284 -0.331252E+02  0.146E-05   12.13       0.0  T
   2    -33.1252284 -0.170530E-11  0.744E-06   12.13    2375.3  T
   3    -33.1252284 -0.120792E-12  0.406E-06   12.13    4355.5  T
     SCC iter.                  ...        0 min,  0.002 sec
     gradient                   ...        0 min,  0.003 sec
 * total energy  :   -32.6484642 Eh     change       -0.1178080E-10 Eh
   gradient norm :     0.0286951 Eh/α   predicted     0.0000000E+00 (-100.00%)
   displ. norm   :     0.1649310 α      lambda       -0.2642390E-02
   maximum displ.:     0.1088106 α      in ANC's #40, #7, #28, ...

........................................................................
.............................. CYCLE    2 ..............................
........................................................................

 iter      E             dE          RMSdq      gap      omega  full diag
   1    -33.1337170 -0.331337E+02  0.142E-01   12.20       0.0  T
   2    -33.1337212 -0.417480E-05  0.811E-02   12.20       1.0  T
   3    -33.1337219 -0.729524E-06  0.376E-03   12.20       4.7  T
   4    -33.1337219 -0.486835E-07  0.142E-03   12.20      12.4  T
   5    -33.1337219 -0.181428E-08  0.714E-04   12.20      24.7  T
   6    -33.1337219 -0.558572E-09  0.474E-05   12.20     373.1  T
     SCC iter.                  ...        0 min,  0.003 sec
     gradient                   ...        0 min,  0.003 sec
 * total energy  :   -32.6502069 Eh     change       -0.1742756E-02 Eh
   gradient norm :     0.0129566 Eh/α   predicted    -0.1357141E-02 ( -22.13%)
   displ. norm   :     0.0990561 α      lambda       -0.5169288E-03
   maximum displ.:     0.0509094 α      in ANC's #7, #40, #11, ...

........................................................................
.............................. CYCLE    3 ..............................
........................................................................

 iter      E             dE          RMSdq      gap      omega  full diag
   1    -33.1397721 -0.331398E+02  0.676E-02   12.26       0.0  T
   2    -33.1397748 -0.273898E-05  0.381E-02   12.26       1.0  T
   3    -33.1397749 -0.109962E-06  0.403E-03   12.26       4.4  T
   4    -33.1397749 -0.335678E-07  0.730E-04   12.26      24.2  T
   5    -33.1397749 -0.209503E-08  0.411E-04   12.26      43.0  T
     SCC iter.                  ...        0 min,  0.003 sec
     gradient                   ...        0 min,  0.003 sec
 * total energy  :   -32.6504924 Eh     change       -0.2854475E-03 Eh
   gradient norm :     0.0020219 Eh/α   predicted    -0.2610437E-03 (  -8.55%)
   displ. norm   :     0.0334517 α      lambda       -0.2778352E-04
   maximum displ.:     0.0222580 α      in ANC's #7, #8, #11, ...

........................................................................
.............................. CYCLE    4 ..............................
........................................................................

 iter      E             dE          RMSdq      gap      omega  full diag
   1    -33.1410165 -0.331410E+02  0.120E-02   12.28       0.0  T
   2    -33.1410166 -0.100872E-06  0.677E-03   12.28       2.6  T
   3    -33.1410166 -0.362760E-08  0.813E-04   12.28      21.8  T
   4    -33.1410166 -0.975454E-09  0.169E-04   12.28     104.4  T
     SCC iter.                  ...        0 min,  0.002 sec
     gradient                   ...        0 min,  0.003 sec
 * total energy  :   -32.6505140 Eh     change       -0.2156016E-04 Eh
   gradient norm :     0.0010194 Eh/α   predicted    -0.1485340E-04 ( -31.11%)
   displ. norm   :     0.0628785 α      lambda       -0.2077495E-04
   maximum displ.:     0.0414221 α      in ANC's #7, #8, #11, ...

........................................................................
.............................. CYCLE    5 ..............................
........................................................................

 iter      E             dE          RMSdq      gap      omega  full diag
   1    -33.1420599 -0.331421E+02  0.190E-02   12.33       0.0  T
   2    -33.1420600 -0.567242E-07  0.110E-02   12.33       1.6  T
   3    -33.1420600 -0.134467E-07  0.559E-04   12.33      31.6  T
   4    -33.1420600 -0.104053E-08  0.286E-04   12.33      61.8  T
     SCC iter.                  ...        0 min,  0.003 sec
     gradient                   ...        0 min,  0.003 sec
 * total energy  :   -32.6505276 Eh     change       -0.1369539E-04 Eh
   gradient norm :     0.0017080 Eh/α   predicted    -0.1040969E-04 ( -23.99%)
   displ. norm   :     0.0113534 α      lambda       -0.3991931E-05
   maximum displ.:     0.0072183 α      in ANC's #14, #2, #4, ...

........................................................................
.............................. CYCLE    6 ..............................
........................................................................

 iter      E             dE          RMSdq      gap      omega  full diag
   1    -33.1415434 -0.331415E+02  0.346E-03   12.32       0.0  T
   2    -33.1415435 -0.378336E-07  0.192E-03   12.32       9.2  T
   3    -33.1415435 -0.402949E-09  0.573E-04   12.32      30.9  T
   4    -33.1415435 -0.190347E-09  0.640E-05   12.32     276.0  T
     SCC iter.                  ...        0 min,  0.003 sec
     gradient                   ...        0 min,  0.003 sec
 * total energy  :   -32.6505320 Eh     change       -0.4351533E-05 Eh
   gradient norm :     0.0003973 Eh/α   predicted    -0.2002672E-05 ( -53.98%)
   displ. norm   :     0.0255985 α      lambda       -0.3349915E-05
   maximum displ.:     0.0152758 α      in ANC's #14, #2, #4, ...

   *** GEOMETRY OPTIMIZATION CONVERGED AFTER 6 ITERATIONS ***

------------------------------------------------------------------------
 total energy gain   :        -0.0020678 Eh       -1.2976 kcal/mol
 total RMSD          :         0.0564481 a0        0.0299 Å
 total power (kW/mol):        -0.9048392 (step) -104.8539 (real)
------------------------------------------------------------------------

 ANCopt (total)                0 d,  0 h,  0 min,  0.052 sec
 optimizer setup                ...        0 min,  0.001 sec (  1.666%)
 model hessian                  ...        0 min,  0.010 sec ( 18.883%)
 ANC generation                 ...        0 min,  0.001 sec (  1.561%)
 coordinate transformation      ...        0 min,  0.000 sec (  0.159%)
 single point calculation       ...        0 min,  0.038 sec ( 73.986%)
 optimization log               ...        0 min,  0.001 sec (  1.222%)
 hessian update                 ...        0 min,  0.000 sec (  0.241%)
 rational function              ...        0 min,  0.000 sec (  0.826%)

================
 final structure:
================
32
 xtb: 6.6.1 (8d0f1dd)
C            5.55505616205219        0.70379948472970       -0.00199737784965
C            4.36827529013314       -0.24374661920966        0.12466702023817
C            3.03709998860882        0.48782864912285       -0.02757053968696
C            1.84408550078243       -0.45695699938373        0.09317960577920
C            0.51527544104043        0.27211066653333       -0.08762732512216
C           -0.68000726985913       -0.67163753944470        0.01872841779602
C           -2.00299284958085        0.05807678256529       -0.20104587604801
C           -3.19926346518189       -0.88534265946611       -0.09819058419199
C           -4.53119717280512       -0.21332092715300       -0.43393733624041
C           -4.94019689429570        0.85168038585660        0.57726916955017
H            6.49194206645483        0.16211206141335        0.10531372913916
H            5.55013506001031        1.19238982426126       -0.97403768986476
H            5.51266597328732        1.47268583124558        0.76646950018894
H            4.44100638875889       -1.02034433029579       -0.64025817366923
H            4.39921399070631       -0.73665021478831        1.09909176961109
H            2.96210067181593        1.26420033906787        0.73763336324724
H            3.00767777719601        0.98211596513499       -1.00168707843552
H            1.92902800425992       -1.24276053113736       -0.66138393189654
H            1.86200516416241       -0.93934491910683        1.07342046055877
H            0.50265823859940        0.75867472249911       -1.06599100212300
H            0.42640910122728        1.05467769130299        0.66973792019164
H           -0.68447839857202       -1.14068262163671        1.00555859144958
H           -0.57769027606474       -1.46759516271673       -0.72299118828932
H           -2.09402675610278        0.85356189678631        0.54025434720397
H           -1.99611821394452        0.52343114314216       -1.18980840281254
H           -3.24807723993328       -1.29894311974073        0.91192287060864
H           -3.04636037879523       -1.71954873089991       -0.78783641654719
H           -4.46574567327746        0.23681283629643       -1.42724895793819
H           -5.30850751083488       -0.98050368606705       -0.47025620016897
H           -5.92223530869773        1.24878533473557        0.32992953979795
H           -4.98373898251341        0.42861712147802        1.57864645661032
H           -4.23371142863690        1.67743732487520        0.58216731891356
           -------------------------------------------------
          |                Final Singlepoint                |
           -------------------------------------------------

          ...................................................
          :                      SETUP                      :
          :.................................................:
          :  # basis functions                  62          :
          :  # atomic orbitals                  62          :
          :  # shells                           42          :
          :  # electrons                        62          :
          :  max. iterations                   250          :
          :  Hamiltonian                  GFN2-xTB          :
          :  restarted?                      false          :
          :  GBSA solvation                  false          :
          :  PC potential                    false          :
          :  electronic temp.          300.0000000     K    :
          :  accuracy                    1.0000000          :
          :  -> integral cutoff          0.2500000E+02      :
          :  -> integral neglect         0.1000000E-07      :
          :  -> SCF convergence          0.1000000E-05 Eh   :
          :  -> wf. convergence          0.1000000E-03 e    :
          :  Broyden damping             0.4000000          :
          ...................................................

 iter      E             dE          RMSdq      gap      omega  full diag
   1    -33.1415435 -0.331415E+02  0.309E-05   12.32       0.0  T
   2    -33.1415435 -0.540012E-12  0.178E-05   12.32     995.2  T
   3    -33.1415435 -0.923706E-13  0.191E-06   12.32    9256.3  T

   *** convergence criteria satisfied after 3 iterations ***

         #    Occupation            Energy/Eh            Energy/eV
      -------------------------------------------------------------
         1        2.0000           -0.6226438             -16.9430
       ...           ...                  ...                  ...
        25        2.0000           -0.4321339             -11.7590
        26        2.0000           -0.4282254             -11.6526
        27        2.0000           -0.4231775             -11.5152
        28        2.0000           -0.4220480             -11.4845
        29        2.0000           -0.4170815             -11.3494
        30        2.0000           -0.4156965             -11.3117
        31        2.0000           -0.4106384             -11.1740 (HOMO)
        32                          0.0422948               1.1509 (LUMO)
        33                          0.0973758               2.6497
        34                          0.1036547               2.8206
        35                          0.1105025               3.0069
        36                          0.1136889               3.0936
       ...                                ...                  ...
        62                          0.3254040               8.8547
      -------------------------------------------------------------
                  HL-Gap            0.4529332 Eh           12.3249 eV
             Fermi-level           -0.1841718 Eh           -5.0116 eV

 SCC (total)                   0 d,  0 h,  0 min,  0.006 sec
 SCC setup                      ...        0 min,  0.000 sec (  4.209%)
 Dispersion                     ...        0 min,  0.000 sec (  1.577%)
 classical contributions        ...        0 min,  0.000 sec (  0.431%)
 integral evaluation            ...        0 min,  0.001 sec ( 12.101%)
 iterations                     ...        0 min,  0.002 sec ( 33.599%)
 molecular gradient             ...        0 min,  0.003 sec ( 43.211%)
 printout                       ...        0 min,  0.000 sec (  4.375%)

         :::::::::::::::::::::::::::::::::::::::::::::::::::::
         ::                     SUMMARY                     ::
         :::::::::::::::::::::::::::::::::::::::::::::::::::::
         :: total energy             -32.650531999113 Eh    ::
         :: gradient norm              0.000397575091 Eh/a0 ::
         :: HOMO-LUMO gap             12.324940704765 eV    ::
         ::.................................................::
         :: SCC energy               -33.141543479219 Eh    ::
         :: -> isotropic ES            0.005738643925 Eh    ::
         :: -> anisotropic ES          0.010606299478 Eh    ::
         :: -> anisotropic XC          0.020033708116 Eh    ::
         :: -> dispersion             -0.019585172565 Eh    ::
         :: repulsion energy           0.491158841310 Eh    ::
         :: add. restraining           0.000000000000 Eh    ::
         :: total charge              -0.000000000000 e     ::
         :::::::::::::::::::::::::::::::::::::::::::::::::::::

           ------------------------------------------------- 
          |                Numerical Hessian                |
           ------------------------------------------------- 
step length          :   0.00500
SCC accuracy         :   0.30000
Hessian scale factor :   1.00000
frozen atoms in %    :   0.00000    0
RMS gradient         :   0.00040
estimated CPU  time      0.17 min
estimated wall time      0.04 min

writing file <hessian>.

 projected vibrational frequencies (cm⁻¹)
eigval :       -0.00    -0.00    -0.00    -0.00     0.00     0.00
eigval :       31.33    37.97    57.74    81.74    85.47   117.63
eigval :      136.51   148.49   156.24   216.75   233.18   251.59
eigval :      299.18   342.76   431.24   459.02   504.83   768.26
eigval :      770.77   784.37   806.53   834.08   887.06   928.48
eigval :      941.16   947.76   998.52  1009.11  1034.06  1055.80
eigval :     1063.91  1098.31  1106.70  1108.90  1121.19  1135.23
eigval :     1143.53  1184.40  1205.42  1229.42  1234.05  1258.10
eigval :     1265.99  1274.26  1281.04  1286.15  1293.84  1298.50
eigval :     1315.10  1347.13  1353.99  1370.69  1378.60  1379.59
eigval :     1415.45  1415.92  1491.27  1493.41  1496.00  1496.74
eigval :     1498.01  1499.89  1501.75  1503.99  1504.64  1507.66
eigval :     1508.13  1510.90  2953.07  2955.09  2956.91  2959.96
eigval :     2962.32  2965.96  2971.31  2972.60  2973.69  2975.76
eigval :     2977.80  2979.09  2979.93  2983.39  2987.55  2993.55
eigval :     3030.26  3031.14  3032.82  3034.08  3038.24  3046.88
           -------------------------------------------------
          |                Property Printout                |
           -------------------------------------------------

    * Orbital Energies and Occupations

         #    Occupation            Energy/Eh            Energy/eV
      -------------------------------------------------------------
         1        2.0000           -0.6226438             -16.9430
       ...           ...                  ...                  ...
        19        2.0000           -0.4654550             -12.6657
        20        2.0000           -0.4592326             -12.4964
        21        2.0000           -0.4554315             -12.3929
        22        2.0000           -0.4473928             -12.1742
        23        2.0000           -0.4387419             -11.9388
        24        2.0000           -0.4357488             -11.8573
        25        2.0000           -0.4321339             -11.7590
        26        2.0000           -0.4282254             -11.6526
        27        2.0000           -0.4231775             -11.5152
        28        2.0000           -0.4220480             -11.4845
        29        2.0000           -0.4170815             -11.3494
        30        2.0000           -0.4156965             -11.3117
        31        2.0000           -0.4106384             -11.1740 (HOMO)
        32                          0.0422948               1.1509 (LUMO)
        33                          0.0973758               2.6497
        34                          0.1036547               2.8206
        35                          0.1105025               3.0069
        36                          0.1136889               3.0936
        37                          0.1200984               3.2680
        38                          0.1305977               3.5537
        39                          0.1402033               3.8151
        40                          0.1413863               3.8473
        41                          0.1499662               4.0808
        42                          0.1556997               4.2368
       ...                                ...                  ...
        62                          0.3254040               8.8547
      -------------------------------------------------------------
                  HL-Gap            0.4529332 Eh           12.3249 eV
             Fermi-level           -0.1841718 Eh           -5.0116 eV

     #   Z          covCN         q      C6AA      α(0)
     1   6 C        3.752    -0.102    22.510     6.766
     2   6 C        3.801    -0.053    21.523     6.605
     3   6 C        3.803    -0.059    21.632     6.622
     4   6 C        3.803    -0.058    21.621     6.620
     5   6 C        3.803    -0.058    21.614     6.619
     6   6 C        3.803    -0.058    21.620     6.620
     7   6 C        3.802    -0.058    21.623     6.620
     8   6 C        3.802    -0.058    21.617     6.619
     9   6 C        3.800    -0.053    21.520     6.605
    10   6 C        3.751    -0.102    22.508     6.766
    11   1 H        0.925     0.033     2.550     2.497
    12   1 H        0.925     0.033     2.541     2.493
    13   1 H        0.925     0.033     2.542     2.493
    14   1 H        0.924     0.028     2.608     2.526
    15   1 H        0.924     0.028     2.609     2.526
    16   1 H        0.924     0.030     2.593     2.518
    17   1 H        0.924     0.030     2.591     2.517
    18   1 H        0.924     0.028     2.609     2.526
    19   1 H        0.924     0.028     2.610     2.527
    20   1 H        0.924     0.029     2.603     2.523
    21   1 H        0.924     0.029     2.607     2.525
    22   1 H        0.924     0.028     2.611     2.527
    23   1 H        0.924     0.028     2.617     2.530
    24   1 H        0.924     0.032     2.556     2.500
    25   1 H        0.924     0.029     2.603     2.523
    26   1 H        0.924     0.030     2.587     2.515
    27   1 H        0.924     0.027     2.628     2.535
    28   1 H        0.924     0.029     2.600     2.522
    29   1 H        0.924     0.028     2.620     2.531
    30   1 H        0.925     0.031     2.575     2.509
    31   1 H        0.925     0.033     2.537     2.491
    32   1 H        0.925     0.035     2.520     2.482

 Mol. C6AA /au·bohr⁶  :       6711.533750
 Mol. C8AA /au·bohr⁸  :     139480.795143
 Mol. α(0) /au        :        121.798312


Wiberg/Mayer (AO) data.
largest (>0.10) Wiberg bond orders for each atom

 ---------------------------------------------------------------------------
     #   Z sym  total        # sym  WBO       # sym  WBO       # sym  WBO
 ---------------------------------------------------------------------------
     1   6 C    3.997 --     2 C    1.019    13 H    0.988    12 H    0.988
                            11 H    0.988
     2   6 C    3.998 --     1 C    1.019     3 C    1.008    15 H    0.979
                            14 H    0.979
     3   6 C    3.997 --     2 C    1.008     4 C    1.007    16 H    0.978
                            17 H    0.977
     4   6 C    3.997 --     3 C    1.007     5 C    1.007    19 H    0.978
                            18 H    0.977
     5   6 C    3.997 --     4 C    1.007     6 C    1.007    21 H    0.978
                            20 H    0.977
     6   6 C    3.997 --     5 C    1.007     7 C    1.007    22 H    0.978
                            23 H    0.977
     7   6 C    3.997 --     8 C    1.008     6 C    1.007    25 H    0.977
                            24 H    0.976
     8   6 C    3.997 --     7 C    1.008     9 C    1.007    26 H    0.978
                            27 H    0.977
     9   6 C    3.998 --    10 C    1.020     8 C    1.007    29 H    0.979
                            28 H    0.978
    10   6 C    3.997 --     9 C    1.020    31 H    0.988    30 H    0.988
                            32 H    0.986
    11   1 H    0.999 --     1 C    0.988
    12   1 H    0.999 --     1 C    0.988
    13   1 H    0.999 --     1 C    0.988
    14   1 H    0.999 --     2 C    0.979
    15   1 H    0.999 --     2 C    0.979
    16   1 H    0.999 --     3 C    0.978
    17   1 H    0.999 --     3 C    0.977
    18   1 H    0.999 --     4 C    0.977
    19   1 H    0.999 --     4 C    0.978
    20   1 H    0.999 --     5 C    0.977
    21   1 H    0.999 --     5 C    0.978
    22   1 H    0.999 --     6 C    0.978
    23   1 H    0.999 --     6 C    0.977
    24   1 H    0.999 --     7 C    0.976
    25   1 H    0.999 --     7 C    0.977
    26   1 H    0.999 --     8 C    0.978
    27   1 H    0.999 --     8 C    0.977
    28   1 H    0.999 --     9 C    0.978
    29   1 H    0.999 --     9 C    0.979
    30   1 H    0.999 --    10 C    0.988
    31   1 H    0.999 --    10 C    0.988
    32   1 H    0.999 --    10 C    0.986
 ---------------------------------------------------------------------------

Topologies differ in total number of bonds
Writing topology from bond orders to xtbtopo.mol

molecular dipole:
                 x           y           z       tot (Debye)
 q only:       -0.004       0.018       0.006
   full:       -0.001       0.013       0.005       0.037
molecular quadrupole (traceless):
                xx          xy          yy          xz          yz          zz
 q only:        0.487       0.026      -0.028      -0.059       0.002      -0.460
  q+dip:       -2.255      -0.089      -0.036      -0.155       0.009       2.291
   full:       -0.923      -0.036      -0.060      -0.105       0.011       0.984

           -------------------------------------------------
          |                Geometry Summary                 |
           -------------------------------------------------

      molecular mass/u    :      142.2820555
   center of mass at/Å    :        0.0008544       0.0010428       0.0001659
  moments of inertia/u·Å² :        0.8755378E+02   0.1821417E+04   0.1861877E+04
rotational constants/cm⁻¹ :        0.1925403E+00   0.9255227E-02   0.9054108E-02

 * 31 selected distances

     #   Z          #   Z                                           value/Å
     1   6 C        2   6 C                                       1.5239215
     2   6 C        3   6 C                                       1.5265670
     3   6 C        4   6 C                                       1.5265925
     4   6 C        5   6 C                                       1.5264231
     5   6 C        6   6 C                                       1.5266543
     6   6 C        7   6 C                                       1.5267858
     7   6 C        8   6 C                                       1.5269850
     8   6 C        9   6 C                                       1.5291785 (max)
     9   6 C       10   6 C                                       1.5244827
     1   6 C       11   1 H                                       1.0875184
     1   6 C       12   1 H                                       1.0879372
     1   6 C       13   1 H                                       1.0878992
     2   6 C       14   1 H                                       1.0924764
     2   6 C       15   1 H                                       1.0924353
     3   6 C       16   1 H                                       1.0926642
     3   6 C       17   1 H                                       1.0927437
     4   6 C       18   1 H                                       1.0927345
     4   6 C       19   1 H                                       1.0926535
     5   6 C       20   1 H                                       1.0927486
     5   6 C       21   1 H                                       1.0926622
     6   6 C       22   1 H                                       1.0926378
     6   6 C       23   1 H                                       1.0927788
     7   6 C       24   1 H                                       1.0911508
     7   6 C       25   1 H                                       1.0928191
     8   6 C       26   1 H                                       1.0926013
     8   6 C       27   1 H                                       1.0931106
     9   6 C       28   1 H                                       1.0925074
     9   6 C       29   1 H                                       1.0927488
    10   6 C       30   1 H                                       1.0877816
    10   6 C       31   1 H                                       1.0879500
    10   6 C       32   1 H                                       1.0867476 (min)

 * 2 distinct bonds (by element types)

   Z      Z             #   av. dist./Å        max./Å        min./Å
   1 H    6 C          22     1.0912412     1.0931106     1.0867476
   6 C    6 C           9     1.5263989     1.5291785     1.5239215

           -------------------------------------------------
          |               Frequency Printout                |
           -------------------------------------------------
 projected vibrational frequencies (cm⁻¹)
eigval :       -0.00    -0.00    -0.00    -0.00     0.00     0.00
eigval :       31.33    37.97    57.74    81.74    85.47   117.63
eigval :      136.51   148.49   156.24   216.75   233.18   251.59
eigval :      299.18   342.76   431.24   459.02   504.83   768.26
eigval :      770.77   784.37   806.53   834.08   887.06   928.48
eigval :      941.16   947.76   998.52  1009.11  1034.06  1055.80
eigval :     1063.91  1098.31  1106.70  1108.90  1121.19  1135.23
eigval :     1143.53  1184.40  1205.42  1229.42  1234.05  1258.10
eigval :     1265.99  1274.26  1281.04  1286.15  1293.84  1298.50
eigval :     1315.10  1347.13  1353.99  1370.69  1378.60  1379.59
eigval :     1415.45  1415.92  1491.27  1493.41  1496.00  1496.74
eigval :     1498.01  1499.89  1501.75  1503.99  1504.64  1507.66
eigval :     1508.13  1510.90  2953.07  2955.09  2956.91  2959.96
eigval :     2962.32  2965.96  2971.31  2972.60  2973.69  2975.76
eigval :     2977.80  2979.09  2979.93  2983.39  2987.55  2993.55
eigval :     3030.26  3031.14  3032.82  3034.08  3038.24  3046.88
 reduced masses (amu)
   1:  9.76   2:  9.97   3:  9.89   4:  7.44   5:  9.96   6: 10.16   7:  8.50   8:  7.16
   9:  9.10  10:  8.19  11:  5.70  12:  7.27  13:  6.77  14:  7.38  15:  6.99  16:  7.82
  17:  2.17  18:  5.86  19:  8.28  20:  8.52  21:  8.39  22:  9.38  23:  8.59  24:  1.64
  25:  1.87  26:  2.31  27:  2.61  28:  2.82  29:  3.27  30:  7.49  31:  5.97  32:  3.13
  33:  3.54  34:  5.88  35:  2.35  36:  9.30  37: 10.01  38:  8.90  39:  7.83  40:  7.87
  41:  7.59  42:  7.90  43:  8.24  44:  6.69  45:  6.12  46:  3.56  47:  4.63  48:  3.44
  49:  3.17  50:  1.54  51:  3.05  52:  2.07  53:  2.29  54:  2.15  55:  3.59  56:  4.10
  57:  4.65  58:  4.80  59:  5.76  60:  5.50  61:  3.22  62:  3.18  63:  1.89  64:  1.85
  65:  1.89  66:  1.94  67:  1.92  68:  1.93  69:  2.04  70:  1.77  71:  1.53  72:  1.67
  73:  1.64  74:  1.56  75:  1.89  76:  1.91  77:  1.92  78:  1.97  79:  1.91  80:  1.92
  81:  1.83  82:  1.47  83:  1.50  84:  1.47  85:  1.90  86:  1.53  87:  1.50  88:  1.75
  89:  1.60  90:  1.58  91:  1.96  92:  1.93  93:  1.91  94:  1.71  95:  1.28  96:  1.51
 IR intensities (km·mol⁻¹)
   1:  0.00   2:  0.00   3:  0.00   4:  0.00   5:  0.00   6:  0.00   7:  0.00   8:  0.00
   9:  0.03  10:  0.00  11:  0.00  12:  0.01  13:  0.00  14:  0.00  15:  0.00  16:  0.04
  17:  0.00  18:  0.02  19:  0.17  20:  0.14  21:  0.48  22:  0.17  23:  0.43  24: 16.90
  25:  0.90  26:  4.02  27:  4.23  28:  1.61  29:  1.08  30:  0.98  31:  4.27  32:  0.57
  33:  0.09  34:  2.30  35:  0.73  36:  0.59  37:  0.13  38:  0.02  39:  0.28  40:  0.59
  41:  1.93  42:  0.55  43:  2.18  44:  1.35  45:  0.54  46:  0.76  47:  0.08  48:  0.28
  49:  0.50  50:  0.15  51:  0.19  52:  0.23  53:  0.09  54:  0.05  55:  0.49  56:  0.02
  57:  3.52  58:  0.80  59:  0.36  60:  0.05  61:  2.16  62:  0.86  63:  0.44  64:  0.23
  65:  0.09  66:  0.16  67:  0.06  68:  0.28  69:  0.23  70:  0.28  71:  2.31  72:  0.70
  73:  1.47  74:  2.10  75:  0.17  76:  1.27  77:  8.61  78:  0.94  79: 20.89  80:  6.14
  81:  1.75  82:  0.74  83:  0.07  84:  7.66  85:115.72  86: 16.79  87: 25.36  88:171.73
  89:112.11  90:197.79  91: 56.66  92: 66.09  93: 62.46  94: 49.84  95: 31.44  96: 37.37
 Raman intensities (amu)
   1:  0.00   2:  0.00   3:  0.00   4:  0.00   5:  0.00   6:  0.00   7:  0.00   8:  0.00
   9:  0.00  10:  0.00  11:  0.00  12:  0.00  13:  0.00  14:  0.00  15:  0.00  16:  0.00
  17:  0.00  18:  0.00  19:  0.00  20:  0.00  21:  0.00  22:  0.00  23:  0.00  24:  0.00
  25:  0.00  26:  0.00  27:  0.00  28:  0.00  29:  0.00  30:  0.00  31:  0.00  32:  0.00
  33:  0.00  34:  0.00  35:  0.00  36:  0.00  37:  0.00  38:  0.00  39:  0.00  40:  0.00
  41:  0.00  42:  0.00  43:  0.00  44:  0.00  45:  0.00  46:  0.00  47:  0.00  48:  0.00
  49:  0.00  50:  0.00  51:  0.00  52:  0.00  53:  0.00  54:  0.00  55:  0.00  56:  0.00
  57:  0.00  58:  0.00  59:  0.00  60:  0.00  61:  0.00  62:  0.00  63:  0.00  64:  0.00
  65:  0.00  66:  0.00  67:  0.00  68:  0.00  69:  0.00  70:  0.00  71:  0.00  72:  0.00
  73:  0.00  74:  0.00  75:  0.00  76:  0.00  77:  0.00  78:  0.00  79:  0.00  80:  0.00
  81:  0.00  82:  0.00  83:  0.00  84:  0.00  85:  0.00  86:  0.00  87:  0.00  88:  0.00
  89:  0.00  90:  0.00  91:  0.00  92:  0.00  93:  0.00  94:  0.00  95:  0.00  96:  0.00
 output can be read by thermo (or use thermo option).
 writing <g98.out> molden fake output.
 recommended (thermochemical) frequency scaling factor: 1.0
           -------------------------------------------------
          |             Thermodynamic Functions             |
           -------------------------------------------------

Molecule has no symmetry elements
It seems to be the C1 point group
c1  symmetry found (for desy threshold:  0.10E+00) used in thermo

          ...................................................
          :                      SETUP                      :
          :.................................................:
          :  # frequencies                          90      :
          :  # imaginary freq.                       0      :
          :  linear?                             false      :
          :  only rotor calc.                    false      :
          :  symmetry                               c1      :
          :  rotational number                       1      :
          :  scaling factor                  1.0000000      :
          :  rotor cutoff                   50.0000000 cm⁻¹ :
          :  imag. cutoff                  -20.0000000 cm⁻¹ :
          :.................................................:

    mode    ω/cm⁻¹     T·S(HO)/kcal·mol⁻¹    T·S(FR)/kcal·mol⁻¹   T·S(vib)
   ------------------------------------------------------------------------
       1     31.33    -1.71242 ( 13.35%)    -1.19492 ( 86.65%)    -1.26402
       2     37.97    -1.59875 ( 24.96%)    -1.13797 ( 75.04%)    -1.25298
       3     57.74    -1.35153 ( 64.00%)    -1.01386 ( 36.00%)    -1.22998
       4     81.74    -1.14749 ( 87.72%)    -0.91090 ( 12.28%)    -1.11843
       5     85.47    -1.12142 ( 89.51%)    -0.89769 ( 10.49%)    -1.09796
       6    117.63    -0.93588 ( 96.84%)    -0.80308 (  3.16%)    -0.93168
       7    136.51    -0.85039 ( 98.23%)    -0.75898 (  1.77%)    -0.84877
       8    148.49    -0.80248 ( 98.73%)    -0.73407 (  1.27%)    -0.80161
       9    156.24    -0.77363 ( 98.96%)    -0.71899 (  1.04%)    -0.77306
      10    216.75    -0.59214 ( 99.72%)    -0.62203 (  0.28%)    -0.59223
      11    233.18    -0.55287 ( 99.79%)    -0.60039 (  0.21%)    -0.55297
      12    251.59    -0.51264 ( 99.84%)    -0.57787 (  0.16%)    -0.51274
      13    299.18    -0.42381 ( 99.92%)    -0.52655 (  0.08%)    -0.42390
   ------------------------------------------------------------------------

   temp. (K)  partition function   enthalpy   heat capacity  entropy
                                   cal/mol     cal/K/mol   cal/K/mol   J/K/mol
 298.15  VIB  0.270E+06             6895.798     40.102     44.713
         ROT  0.132E+07              888.752      2.981     30.982
         INT  0.356E+12             7784.550     43.083     75.695
         TR   0.164E+28             1481.254      4.968     40.751
         TOT                        9265.8041    48.0509   116.4458   487.2094

       T/K    H(0)-H(T)+PV         H(T)/Eh          T*S/Eh         G(T)/Eh
   ------------------------------------------------------------------------
    298.15    0.147660E-01    0.314793E+00    0.553272E-01    0.259466E+00
   ------------------------------------------------------------------------

         :::::::::::::::::::::::::::::::::::::::::::::::::::::
         ::                  THERMODYNAMIC                  ::
         :::::::::::::::::::::::::::::::::::::::::::::::::::::
         :: total free energy         -32.391065813894 Eh   ::
         ::.................................................::
         :: total energy              -32.650531999113 Eh   ::
         :: zero point energy           0.300027362236 Eh   ::
         :: G(RRHO) w/o ZPVE           -0.040561177017 Eh   ::
         :: G(RRHO) contrib.            0.259466185219 Eh   ::
         :::::::::::::::::::::::::::::::::::::::::::::::::::::
 
 normal mode %tage of torsion character
   1:  0.00   2:  0.00   3:  0.00   4:  0.00   5:  0.00   6:  0.00   7:  0.55   8:  0.50
   9:  0.36  10:  0.47  11:  0.66  12:  0.59  13:  0.72  14:  0.68  15:  0.35  16:  0.23
  17:  0.89  18:  0.63  19:  0.37  20:  0.19  21:  0.12  22:  0.05  23:  0.07  24:  0.58
  25:  0.48  26:  0.47  27:  0.53  28:  0.52  29:  0.53  30:  0.13  31:  0.10  32:  0.51
  33:  0.44  34:  0.16  35:  0.34  36:  0.07  37:  0.06  38:  0.02  39:  0.03  40:  0.08
  41:  0.11  42:  0.05  43:  0.10  44:  0.50  45:  0.55  46:  0.16  47:  0.42  48:  0.28
  49:  0.22  50:  0.12  51:  0.12  52:  0.18  53:  0.09  54:  0.11  55:  0.07  56:  0.07
  57:  0.09  58:  0.06  59:  0.06  60:  0.06  61:  0.00  62:  0.00  63:  0.61  64:  0.69
  65:  0.65  66:  0.64  67:  0.61  68:  0.63  69:  0.62  70:  0.62  71:  0.92  72:  0.80
  73:  0.82  74:  0.90  75:  0.36  76:  0.39  77:  0.31  78:  0.30  79:  0.17  80:  0.14
  81:  0.04  82:  0.01  83:  0.01  84:  0.01  85:  0.01  86:  0.01  87:  0.01  88:  0.01
  89:  0.01  90:  0.02  91:  0.08  92:  0.04  93:  0.03  94:  0.03  95:  0.00  96:  0.02
 recommended # of modes for mode following           4

optimized geometry written to: xtbopt.xyz


           -------------------------------------------------
          | TOTAL ENERGY              -32.650531999113 Eh   |
          | TOTAL ENTHALPY            -32.335738638182 Eh   |
          | TOTAL FREE ENERGY         -32.391065813894 Eh   |
          | GRADIENT NORM               0.000397571961 Eh/α |
          | HOMO-LUMO GAP              12.324940722359 eV   |
           -------------------------------------------------

------------------------------------------------------------------------
 * finished run on 2024/04/23 at 12:10:25.749     
------------------------------------------------------------------------
 total:
 * wall-time:     0 d,  0 h,  0 min,  0.867 sec
 *  cpu-time:     0 d,  0 h,  0 min,  3.279 sec
 * ratio c/w:     3.780 speedup
 SCF:
 * wall-time:     0 d,  0 h,  0 min,  0.028 sec
 *  cpu-time:     0 d,  0 h,  0 min,  0.092 sec
 * ratio c/w:     3.263 speedup
 ANC optimizer:
 * wall-time:     0 d,  0 h,  0 min,  0.068 sec
 *  cpu-time:     0 d,  0 h,  0 min,  0.251 sec
 * ratio c/w:     3.719 speedup
 analytical hessian:
 * wall-time:     0 d,  0 h,  0 min,  0.664 sec
 *  cpu-time:     0 d,  0 h,  0 min,  2.628 sec
 * ratio c/w:     3.959 speedup

