32
 energy: -32.648464188705 gnorm: 0.028695101260 xtb: 6.6.1 (8d0f1dd)
C            5.58365200000000        0.70339700000000       -0.00364700000000
C            4.39397100000000       -0.23545800000000        0.12230600000000
C            3.05360700000000        0.48611000000000       -0.02520700000000
C            1.85179900000000       -0.45095700000000        0.09561700000000
C            0.51480200000000        0.26861100000000       -0.08153800000000
C           -0.68790800000000       -0.66886100000000        0.02429400000000
C           -2.02147200000000        0.04470000000000       -0.19946900000000
C           -3.22382100000000       -0.89593200000000       -0.10874300000000
C           -4.55855100000000       -0.21721000000000       -0.43387900000000
C           -4.95099000000000        0.85461200000000        0.57159800000000
H            6.53591700000000        0.17716800000000        0.09904000000000
H            5.58961100000000        1.20572100000000       -0.97337000000000
H            5.55503900000000        1.48239700000000        0.76115000000000
H            4.46073100000000       -1.03342200000000       -0.62977400000000
H            4.42212000000000       -0.75533100000000        1.08961300000000
H            2.97794700000000        1.28188600000000        0.72639800000000
H            3.01995100000000        1.00461100000000       -0.99163400000000
H            1.93700000000000       -1.25567700000000       -0.64538500000000
H            1.87347200000000       -0.95719100000000        1.06881100000000
H            0.49860800000000        0.77846200000000       -1.05300500000000
H            0.42485900000000        1.07076700000000        0.66167000000000
H           -0.69013600000000       -1.15909200000000        1.00591600000000
H           -0.58187100000000       -1.48537000000000       -0.70094700000000
H           -2.12591300000000        0.85938900000000        0.52716600000000
H           -2.01365300000000        0.53660200000000       -1.18020500000000
H           -3.26899300000000       -1.33477500000000        0.89582800000000
H           -3.06200700000000       -1.74613300000000       -0.78487100000000
H           -4.50621400000000        0.21688800000000       -1.44165200000000
H           -5.35336400000000       -0.97490100000000       -0.49187800000000
H           -5.92777400000000        1.28999400000000        0.34581500000000
H           -5.00084100000000        0.44718200000000        1.58352100000000
H           -4.22929100000000        1.67343300000000        0.58858300000000
32
 energy: -32.650206944484 gnorm: 0.012956601838 xtb: 6.6.1 (8d0f1dd)
C            5.57189192519931        0.70455727198110       -0.00379513100977
C            4.38446301235235       -0.23790108512094        0.12264305557205
C            3.04787752670644        0.48834049790970       -0.02599618836692
C            1.84978816573008       -0.45254182885292        0.09524422433999
C            0.51468868006207        0.26965663501733       -0.08274294813852
C           -0.68546417650770       -0.67089139531375        0.02337594799329
C           -2.01489331913153        0.04889040052178       -0.20004529759572
C           -3.21597294063276       -0.89161663626106       -0.10407789280103
C           -4.54777657007512       -0.21444402481231       -0.43435736116713
C           -4.94489078323098        0.85331548757948        0.57360405888108
H            6.51345254621174        0.16589611894175        0.10093817091605
H            5.57431036630855        1.19853464013811       -0.97535084810914
H            5.53948966205308        1.47648230526223        0.76491099346851
H            4.45674454906220       -1.02124518477426       -0.63996179339538
H            4.41765015564380       -0.74024906635456        1.09571783392651
H            2.97495540921262        1.27082152199592        0.73687825345855
H            3.01750618923891        0.99066636207127       -0.99884185175082
H            1.93500283255616       -1.24457118166570       -0.65652996277058
H            1.87064001411282       -0.94265389975905        1.07451968691784
H            0.50010093795425        0.76388191579767       -1.06013009894606
H            0.42571815812306        1.05872920033819        0.67167506894918
H           -0.69012332825072       -1.14477254568683        1.01082805800064
H           -0.58113048364314       -1.47510187216417       -0.71295350240460
H           -2.11575584358537        0.84930341181305        0.53872346866537
H           -2.00767191355246        0.52379236030545       -1.18713005491986
H           -3.26620623515096       -1.31816161045230        0.90336057738336
H           -3.06461796700433       -1.72882586193762       -0.79450480115718
H           -4.49015066939327        0.22884696654252       -1.43460544543252
H           -5.33419283558564       -0.97714110102165       -0.47331131021924
H           -5.92201833394313        1.27185030013942        0.33271109559393
H           -4.99603524181563        0.43636829699707        1.57931090683110
H           -4.22709248902470        1.67180360082507        0.58201508728699
32
 energy: -32.650492391997 gnorm: 0.002021914194 xtb: 6.6.1 (8d0f1dd)
C            5.56330903634728        0.70504298827055       -0.00367214932670
C            4.37571167792921       -0.24047408647291        0.12310827053267
C            3.04201642105676        0.48944342670631       -0.02668609544062
C            1.84701279504848       -0.45483683760187        0.09484638895715
C            0.51442018430532        0.27126351135019       -0.08426945175881
C           -0.68277274030011       -0.67281624495924        0.02243285515659
C           -2.00882020694747        0.05294076184390       -0.20015617719262
C           -3.20769031660629       -0.88955465973883       -0.10252640510979
C           -4.53900750430581       -0.21340166200130       -0.43400297546408
C           -4.94138722029099        0.85406571060156        0.57530927014097
H            6.49918368782614        0.16022920686355        0.10238440331396
H            5.56195971607135        1.19495166865453       -0.97536099526273
H            5.52664670128050        1.47350103435979        0.76589430374726
H            4.44972329617249       -1.01637972802894       -0.64306168504075
H            4.40999497020758       -0.73415707081639        1.09755590246764
H            2.96997133444013        1.26527578580670        0.73992092914329
H            3.01324373924092        0.98410104472756       -1.00107674322601
H            1.93253346000248       -1.24028797561119       -0.66066432970630
H            1.86730503277194       -0.93705504989651        1.07564174165806
H            0.50070909367828        0.75791130151035       -1.06309010065056
H            0.42567753390925        1.05346234303483        0.67419420548991
H           -0.68842411419128       -1.13926206090391        1.01099573839980
H           -0.57924665105973       -1.47034094937329       -0.71812581567199
H           -2.10563583969110        0.84691814563597        0.54255522963210
H           -2.00183998658994        0.51895646667243       -1.18908987917121
H           -3.25968331653019       -1.30770587328652        0.90594472158057
H           -3.05951527262005       -1.72110579053587       -0.79694815051556
H           -4.47763476059412        0.23413102821647       -1.42918875568168
H           -5.31891247527652       -0.97912145740753       -0.46559919410007
H           -5.91963720247239        1.26086974495104        0.32676451064807
H           -4.99138399346755        0.43158619595111        1.57683420276892
H           -4.22754007934456        1.67346908147747        0.58125822968250
32
 energy: -32.650513952152 gnorm: 0.001019416740 xtb: 6.6.1 (8d0f1dd)
C            5.56039026778602        0.70477952367765       -0.00337258609637
C            4.37258649451069       -0.24162127568445        0.12344873624545
C            3.03993421569901        0.48940940751835       -0.02696768927685
C            1.84592158972308       -0.45562349980641        0.09450695960089
C            0.51453890163102        0.27162093834416       -0.08507236858841
C           -0.68167237225168       -0.67298432253794        0.02165563682692
C           -2.00652764477848        0.05452653727573       -0.20050294259093
C           -3.20448881767013       -0.88845532178922       -0.10130713717847
C           -4.53611014217716       -0.21333126942228       -0.43420649155321
C           -4.94051215861109        0.85380293888414        0.57602248712227
H            6.49591950789843        0.16010654260801        0.10301050793619
H            5.55748661630692        1.19414560373591       -0.97503224520029
H            5.52173468124634        1.47302745946988        0.76593375628931
H            4.44609541427165       -1.01706040787996       -0.64250774290047
H            4.40591702565647       -0.73454138077339        1.09773803502568
H            2.96703346788310        1.26482249601220        0.73931850811807
H            3.01081489733954        0.98352007053783       -1.00110843621352
H            1.93126131028108       -1.24064115288942       -0.66076769672039
H            1.86556233108684       -0.93736820951818        1.07499221722276
H            0.50100705976285        0.75775191196590       -1.06359309832360
H            0.42565380791612        1.05332799044606        0.67313868675365
H           -0.68705761067276       -1.13948320452011        1.00964245068238
H           -0.57832213998034       -1.46964919751025       -0.71910363638975
H           -2.10138485545240        0.84830144756555        0.54197624063694
H           -1.99922650044571        0.51997310156939       -1.18917642402923
H           -3.25546877923783       -1.30531186476675        0.90731141207009
H           -3.05496636163889       -1.71984452552226       -0.79488589181216
H           -4.47352318205565        0.23500644163790       -1.42849550495483
H           -5.31471360067301       -0.97955521703517       -0.46617845113894
H           -5.91956286415506        1.25726708131242        0.32663755232551
H           -4.98921588372058        0.43085731405710        1.57715854747366
H           -4.22881767547839        1.67484404303759        0.58190860863766
32
 energy: -32.650527647546 gnorm: 0.001708037330 xtb: 6.6.1 (8d0f1dd)
C            5.55512676463912        0.70391806691800       -0.00242679870368
C            4.36760821021740       -0.24363073173558        0.12432917895234
C            3.03661443869899        0.48851963918963       -0.02749313794634
C            1.84397403756260       -0.45691719681509        0.09355592609489
C            0.51500855096507        0.27210398005195       -0.08702793773440
C           -0.67981777041175       -0.67240579006127        0.01949204895186
C           -2.00263894860209        0.05771453437452       -0.20094180852417
C           -3.19887710779424       -0.88593619495170       -0.09886413013349
C           -4.53105510890236       -0.21338969696967       -0.43409513046217
C           -4.93966326672287        0.85249551441619        0.57717884761167
H            6.49139144163293        0.16136423689260        0.10460844394987
H            5.54974276044555        1.19259891280877       -0.97426143743844
H            5.51277114928358        1.47245586987492        0.76620023554430
H            4.43997634746232       -1.01967911538902       -0.64073706188639
H            4.39862216101916       -0.73637269586706        1.09848210118984
H            2.96166806737176        1.26443872226599        0.73774760835042
H            3.00676726408046        0.98268643178181       -1.00132203977978
H            1.92892262344312       -1.24234649844158       -0.66094317920544
H            1.86215661113962       -0.93903154817254        1.07357350557721
H            0.50203296545794        0.75843503814066       -1.06514159253335
H            0.42595667304330        1.05421007329882        0.67031852443627
H           -0.68444809927446       -1.14067748756706        1.00633206973298
H           -0.57705524249472       -1.46835177988547       -0.72170983237682
H           -2.09371926027780        0.85274139404799        0.54041911794924
H           -1.99507690405067        0.52298564591176       -1.18939009142176
H           -3.24762564948307       -1.30027620523942        0.91066222383527
H           -3.04601112027437       -1.71908872103192       -0.78932538660885
H           -4.46592811157022        0.23641934160385       -1.42729929268066
H           -5.30824612561780       -0.98031350217548       -0.46922725792482
H           -5.92095169965492        1.25021444445948        0.32840682532079
H           -4.98455869568141        0.42929176760105        1.57828731742390
H           -4.23237995565016        1.67744355066489        0.58273414043969
32
 energy: -32.650531999079 gnorm: 0.000397338903 xtb: 6.6.1 (8d0f1dd)
C            5.55505616205219        0.70379948472970       -0.00199737784965
C            4.36827529013314       -0.24374661920966        0.12466702023817
C            3.03709998860882        0.48782864912285       -0.02757053968696
C            1.84408550078243       -0.45695699938373        0.09317960577920
C            0.51527544104043        0.27211066653333       -0.08762732512216
C           -0.68000726985913       -0.67163753944470        0.01872841779602
C           -2.00299284958085        0.05807678256529       -0.20104587604801
C           -3.19926346518189       -0.88534265946611       -0.09819058419199
C           -4.53119717280512       -0.21332092715300       -0.43393733624041
C           -4.94019689429570        0.85168038585660        0.57726916955017
H            6.49194206645483        0.16211206141335        0.10531372913916
H            5.55013506001031        1.19238982426126       -0.97403768986476
H            5.51266597328732        1.47268583124558        0.76646950018894
H            4.44100638875889       -1.02034433029579       -0.64025817366923
H            4.39921399070631       -0.73665021478831        1.09909176961109
H            2.96210067181593        1.26420033906787        0.73763336324724
H            3.00767777719601        0.98211596513499       -1.00168707843552
H            1.92902800425992       -1.24276053113736       -0.66138393189654
H            1.86200516416241       -0.93934491910683        1.07342046055877
H            0.50265823859940        0.75867472249911       -1.06599100212300
H            0.42640910122728        1.05467769130299        0.66973792019164
H           -0.68447839857202       -1.14068262163671        1.00555859144958
H           -0.57769027606474       -1.46759516271673       -0.72299118828932
H           -2.09402675610278        0.85356189678631        0.54025434720397
H           -1.99611821394452        0.52343114314216       -1.18980840281254
H           -3.24807723993328       -1.29894311974073        0.91192287060864
H           -3.04636037879523       -1.71954873089991       -0.78783641654719
H           -4.46574567327746        0.23681283629643       -1.42724895793819
H           -5.30850751083488       -0.98050368606705       -0.47025620016897
H           -5.92223530869773        1.24878533473557        0.32992953979795
H           -4.98373898251341        0.42861712147802        1.57864645661032
H           -4.23371142863690        1.67743732487520        0.58216731891356
