 Entering Gaussian System
 *********************************************
 Gaussian 98:
 frequency output generated by the xtb code
 *********************************************
                         Standard orientation:
 --------------------------------------------------------------------
  Center     Atomic     Atomic              Coordinates (Angstroms)
  Number     Number      Type              X           Y           Z
 --------------------------------------------------------------------
    1          6             0       -1.937444    0.135083    0.000436
    2          6             0       -0.561102   -0.517626   -0.000477
    3          6             0        0.561126    0.517618   -0.000596
    4          6             0        1.937547   -0.134919    0.000540
    5          1             0       -2.064542    0.759267   -0.881654
    6          1             0       -2.720331   -0.619942    0.002012
    7          1             0       -2.062512    0.760814    0.881728
    8          1             0       -0.461270   -1.155422    0.881022
    9          1             0       -0.462127   -1.154833   -0.882489
   10          1             0        0.461230    1.155620    0.880746
   11          1             0        0.462105    1.154604   -0.882764
   12          1             0        2.063354   -0.759053    0.882857
   13          1             0        2.064131   -0.760654   -0.880527
   14          1             0        2.720295    0.620249    0.000216
 --------------------------------------------------------------------
     1 basis functions        1 primitive gaussians
     1 alpha electrons        1 beta electrons
 
 Harmonic frequencies (cm**-1), IR intensities (km*mol⁻¹),
 Raman scattering activities (A**4/amu), Raman depolarization ratios,
 reduced masses (AMU), force constants (mDyne/A) and normal coordinates:
                      1                      2                      3
                        a                      a                      a 
 Frequencies --   108.4096               214.0820               246.2567
 Red. masses --     6.8403                 1.5192                 2.2642
 Frc consts  --     0.0000                 0.0000                 0.0000
 IR Inten    --     0.0148                 0.0221                 0.0000
 Raman Activ --     0.0000                 0.0000                 0.0000
 Depolar     --     0.0000                 0.0000                 0.0000
 Atom AN      X      Y      Z        X      Y      Z        X      Y      Z
   1   6    -0.00   0.00  -0.35     0.00   0.00  -0.10    -0.00  -0.00  -0.01
   2   6     0.00  -0.00   0.38     0.00  -0.00   0.12     0.00   0.00  -0.24
   3   6    -0.00   0.00   0.38    -0.00  -0.00   0.12     0.00   0.00   0.24
   4   6     0.00  -0.00  -0.35     0.00   0.00  -0.10    -0.00  -0.00   0.01
   5   1     0.07  -0.14  -0.21     0.19   0.29   0.15    -0.17  -0.26  -0.16
   6   1    -0.00   0.00  -0.05    -0.00  -0.00  -0.44     0.00  -0.00   0.37
   7   1    -0.07   0.14  -0.21    -0.19  -0.29   0.15     0.17   0.26  -0.16
   8   1    -0.08   0.09   0.18    -0.03  -0.00   0.04    -0.00  -0.10  -0.14
   9   1     0.08  -0.09   0.18     0.03   0.00   0.04     0.00   0.10  -0.14
  10   1     0.08  -0.09   0.18     0.03   0.00   0.04    -0.00  -0.10   0.14
  11   1    -0.08   0.09   0.18    -0.03  -0.00   0.04     0.00   0.10   0.14
  12   1     0.07  -0.14  -0.21     0.19   0.29   0.15     0.17   0.26   0.16
  13   1    -0.07   0.14  -0.21    -0.19  -0.29   0.15    -0.17  -0.26   0.16
  14   1     0.00   0.00  -0.05     0.00  -0.00  -0.44     0.00  -0.00  -0.37
                      4                      5                      6
                        a                      a                      a 
 Frequencies --   265.3046               427.0662               776.5744
 Red. masses --     7.7874                 8.7958                 1.7358
 Frc consts  --     0.0000                 0.0000                 0.0000
 IR Inten    --     0.4111                 0.0000                 9.6967
 Raman Activ --     0.0000                 0.0000                 0.0000
 Depolar     --     0.0000                 0.0000                 0.0000
 Atom AN      X      Y      Z        X      Y      Z        X      Y      Z
   1   6     0.16   0.32   0.00     0.49   0.03  -0.00    -0.00   0.00  -0.02
   2   6    -0.17  -0.39  -0.00     0.26  -0.21   0.00    -0.00   0.00  -0.18
   3   6    -0.17  -0.39   0.00    -0.26   0.21   0.00    -0.00  -0.00  -0.18
   4   6     0.16   0.32   0.00    -0.49  -0.03  -0.00     0.00  -0.00  -0.02
   5   1     0.16   0.12   0.00     0.22   0.03   0.00    -0.15   0.10   0.09
   6   1    -0.09   0.24   0.00     0.04   0.11   0.00     0.00  -0.00   0.06
   7   1     0.16   0.12  -0.00     0.22   0.03  -0.00     0.15  -0.10   0.09
   8   1    -0.10  -0.12   0.00     0.11  -0.05   0.00    -0.01   0.37   0.23
   9   1    -0.10  -0.11  -0.00     0.11  -0.05  -0.00     0.01  -0.37   0.23
  10   1    -0.10  -0.12  -0.00    -0.11   0.05   0.00     0.01  -0.37   0.23
  11   1    -0.10  -0.11   0.00    -0.11   0.05  -0.00    -0.01   0.37   0.23
  12   1     0.16   0.12   0.00    -0.22  -0.03  -0.00    -0.15   0.10   0.09
  13   1     0.16   0.12  -0.00    -0.22  -0.03   0.00     0.15  -0.10   0.09
  14   1    -0.09   0.24  -0.00    -0.04  -0.11   0.00    -0.00   0.00   0.06
                      7                      8                      9
                        a                      a                      a 
 Frequencies --   847.5494               893.6096               967.8010
 Red. masses --     2.2228                 6.5178                 1.9962
 Frc consts  --     0.0000                 0.0000                 0.0000
 IR Inten    --     0.0000                 0.0000                 2.4198
 Raman Activ --     0.0000                 0.0000                 0.0000
 Depolar     --     0.0000                 0.0000                 0.0000
 Atom AN      X      Y      Z        X      Y      Z        X      Y      Z
   1   6    -0.00   0.00   0.11     0.29   0.07  -0.00     0.00   0.00   0.18
   2   6     0.00  -0.00   0.21     0.11   0.38   0.00    -0.00  -0.00  -0.11
   3   6     0.00  -0.00  -0.21    -0.11  -0.38   0.00    -0.00   0.00  -0.11
   4   6     0.00  -0.00  -0.11    -0.29  -0.07  -0.00     0.00   0.00   0.18
   5   1     0.28  -0.15  -0.12    -0.14  -0.05  -0.01     0.26  -0.14  -0.09
   6   1    -0.00   0.00  -0.14     0.35  -0.26  -0.00    -0.00  -0.00  -0.13
   7   1    -0.28   0.15  -0.12    -0.14  -0.05   0.01    -0.26   0.14  -0.09
   8   1     0.19  -0.22  -0.13    -0.03   0.09  -0.00     0.32   0.14   0.04
   9   1    -0.19   0.22  -0.13    -0.03   0.09   0.00    -0.32  -0.14   0.04
  10   1     0.19  -0.22   0.13     0.03  -0.09  -0.00    -0.32  -0.14   0.04
  11   1    -0.19   0.22   0.13     0.03  -0.09   0.00     0.32   0.14   0.04
  12   1    -0.28   0.15   0.12     0.14   0.05   0.01     0.26  -0.14  -0.09
  13   1     0.28  -0.15   0.12     0.14   0.05  -0.01    -0.26   0.14  -0.09
  14   1     0.00  -0.00   0.14    -0.35   0.26  -0.00     0.00  -0.00  -0.13
                     10                     11                     12
                        a                      a                      a 
 Frequencies --  1002.5848              1075.5839              1110.9374
 Red. masses --     2.8374                 9.9907                 8.1516
 Frc consts  --     0.0000                 0.0000                 0.0000
 IR Inten    --    11.9547                 0.4693                 0.0000
 Raman Activ --     0.0000                 0.0000                 0.0000
 Depolar     --     0.0000                 0.0000                 0.0000
 Atom AN      X      Y      Z        X      Y      Z        X      Y      Z
   1   6     0.18   0.21  -0.00     0.36  -0.23  -0.00    -0.25   0.25   0.00
   2   6    -0.03  -0.08   0.00    -0.41   0.23   0.00     0.44  -0.06  -0.00
   3   6    -0.03  -0.08   0.00    -0.41   0.23  -0.00    -0.45   0.06  -0.00
   4   6     0.18   0.21  -0.00     0.36  -0.23   0.00     0.25  -0.25   0.00
   5   1    -0.24  -0.04  -0.02     0.16  -0.05  -0.00    -0.15   0.05  -0.00
   6   1     0.36  -0.28  -0.00     0.06  -0.02   0.00     0.00  -0.01  -0.00
   7   1    -0.24  -0.04   0.02     0.16  -0.05   0.00    -0.15   0.05   0.00
   8   1    -0.20  -0.05   0.00    -0.10   0.07   0.00     0.25   0.01   0.00
   9   1    -0.20  -0.05  -0.00    -0.10   0.07  -0.00     0.25   0.01  -0.00
  10   1    -0.20  -0.05  -0.00    -0.10   0.07  -0.00    -0.25  -0.01   0.00
  11   1    -0.20  -0.05   0.00    -0.10   0.07   0.00    -0.25  -0.01  -0.00
  12   1    -0.24  -0.04  -0.02     0.16  -0.05  -0.00     0.15  -0.05   0.00
  13   1    -0.24  -0.04   0.02     0.16  -0.05   0.00     0.15  -0.05  -0.00
  14   1     0.37  -0.28   0.00     0.06  -0.02   0.00    -0.00   0.01  -0.00
                     13                     14                     15
                        a                      a                      a 
 Frequencies --  1164.5181              1202.1693              1257.8551
 Red. masses --     7.2267                 6.0202                 3.3985
 Frc consts  --     0.0000                 0.0000                 0.0000
 IR Inten    --     0.0000                 0.0000                 0.5483
 Raman Activ --     0.0000                 0.0000                 0.0000
 Depolar     --     0.0000                 0.0000                 0.0000
 Atom AN      X      Y      Z        X      Y      Z        X      Y      Z
   1   6     0.07   0.21  -0.00     0.00   0.00   0.27    -0.00  -0.00  -0.26
   2   6    -0.11  -0.47   0.00    -0.00  -0.00  -0.40     0.00   0.00   0.21
   3   6     0.11   0.47  -0.00    -0.00   0.00   0.40    -0.00  -0.00   0.21
   4   6    -0.07  -0.21  -0.00     0.00  -0.00  -0.27     0.00  -0.00  -0.25
   5   1    -0.19  -0.03  -0.02     0.22  -0.13  -0.07    -0.18   0.12   0.05
   6   1     0.21  -0.16  -0.00    -0.00  -0.00  -0.11     0.00   0.00   0.10
   7   1    -0.19  -0.03   0.02    -0.22   0.13  -0.07     0.18  -0.12   0.05
   8   1    -0.14  -0.13   0.00    -0.06   0.22   0.07     0.37  -0.05  -0.03
   9   1    -0.14  -0.13  -0.00     0.06  -0.22   0.07    -0.37   0.05  -0.03
  10   1     0.14   0.13   0.00    -0.06   0.22  -0.07    -0.37   0.05  -0.03
  11   1     0.14   0.13  -0.00     0.06  -0.22  -0.07     0.37  -0.05  -0.03
  12   1     0.19   0.03   0.02    -0.22   0.13   0.07    -0.18   0.12   0.05
  13   1     0.19   0.03  -0.02     0.22  -0.13   0.07     0.18  -0.12   0.05
  14   1    -0.21   0.16  -0.00     0.00   0.00   0.11     0.00  -0.00   0.10
                     16                     17                     18
                        a                      a                      a 
 Frequencies --  1285.5514              1304.3289              1372.4642
 Red. masses --     1.7669                 3.8626                 5.1942
 Frc consts  --     0.0000                 0.0000                 0.0000
 IR Inten    --     0.0000                 2.5177                 0.0000
 Raman Activ --     0.0000                 0.0000                 0.0000
 Depolar     --     0.0000                 0.0000                 0.0000
 Atom AN      X      Y      Z        X      Y      Z        X      Y      Z
   1   6     0.00   0.00   0.10     0.04   0.15  -0.00    -0.04  -0.08   0.00
   2   6    -0.00  -0.00   0.15    -0.30  -0.13  -0.00     0.43   0.03  -0.00
   3   6    -0.00  -0.00  -0.15    -0.30  -0.13   0.00    -0.43  -0.03  -0.00
   4   6     0.00   0.00  -0.11     0.04   0.15   0.00     0.04   0.08   0.00
   5   1     0.07  -0.04  -0.01    -0.03  -0.03  -0.04    -0.02   0.05   0.05
   6   1     0.00  -0.00  -0.01     0.16  -0.12  -0.00    -0.10   0.08  -0.00
   7   1    -0.07   0.04  -0.01    -0.03  -0.03   0.04    -0.02   0.05  -0.05
   8   1    -0.45  -0.15  -0.02     0.40   0.05   0.01    -0.37  -0.04   0.02
   9   1     0.45   0.15  -0.02     0.40   0.05  -0.01    -0.37  -0.04  -0.02
  10   1    -0.45  -0.15   0.02     0.40   0.05  -0.01     0.37   0.04   0.02
  11   1     0.45   0.15   0.02     0.40   0.05   0.01     0.37   0.04  -0.02
  12   1    -0.07   0.04   0.01    -0.03  -0.03  -0.04     0.02  -0.05  -0.05
  13   1     0.07  -0.04   0.01    -0.03  -0.03   0.04     0.02  -0.05   0.05
  14   1     0.00  -0.00   0.01     0.16  -0.12   0.00     0.10  -0.08   0.00
                     19                     20                     21
                        a                      a                      a 
 Frequencies --  1415.1093              1418.5501              1497.0669
 Red. masses --     3.2683                 3.1363                 1.8738
 Frc consts  --     0.0000                 0.0000                 0.0000
 IR Inten    --     0.0000                 1.6460                 0.6155
 Raman Activ --     0.0000                 0.0000                 0.0000
 Depolar     --     0.0000                 0.0000                 0.0000
 Atom AN      X      Y      Z        X      Y      Z        X      Y      Z
   1   6     0.29  -0.12  -0.00    -0.29   0.11   0.00    -0.00   0.06   0.00
   2   6    -0.08  -0.00  -0.00     0.05   0.02   0.00     0.06  -0.18  -0.00
   3   6     0.08   0.00   0.00     0.05   0.02   0.00     0.06  -0.18   0.00
   4   6    -0.29   0.12  -0.00    -0.29   0.11  -0.00    -0.00   0.06  -0.00
   5   1    -0.34   0.06   0.10     0.35  -0.06  -0.10     0.00  -0.15  -0.11
   6   1    -0.24   0.27  -0.00     0.24  -0.26   0.00    -0.05   0.05  -0.00
   7   1    -0.34   0.06  -0.10     0.35  -0.06   0.10     0.00  -0.15   0.11
   8   1     0.06   0.04   0.02    -0.05  -0.03  -0.02    -0.07   0.34   0.26
   9   1     0.05   0.04  -0.02    -0.05  -0.03   0.02    -0.07   0.34  -0.26
  10   1    -0.05  -0.04   0.02    -0.05  -0.03   0.02    -0.07   0.34  -0.26
  11   1    -0.06  -0.04  -0.02    -0.05  -0.03  -0.02    -0.07   0.34   0.26
  12   1     0.34  -0.06  -0.10     0.35  -0.06  -0.10     0.00  -0.15  -0.11
  13   1     0.34  -0.06   0.10     0.35  -0.06   0.10     0.00  -0.15   0.11
  14   1     0.24  -0.27   0.00     0.24  -0.26   0.00    -0.05   0.05   0.00
                     22                     23                     24
                        a                      a                      a 
 Frequencies --  1499.8206              1505.1940              1505.3889
 Red. masses --     1.8265                 1.5579                 1.5053
 Frc consts  --     0.0000                 0.0000                 0.0000
 IR Inten    --     0.0000                 0.0001                 4.7297
 Raman Activ --     0.0000                 0.0000                 0.0000
 Depolar     --     0.0000                 0.0000                 0.0000
 Atom AN      X      Y      Z        X      Y      Z        X      Y      Z
   1   6    -0.02   0.01   0.00     0.00  -0.00   0.15     0.00   0.00   0.15
   2   6     0.01  -0.19  -0.00    -0.00   0.00   0.03     0.00  -0.00   0.03
   3   6    -0.01   0.19  -0.00    -0.00  -0.00  -0.03    -0.00   0.00   0.03
   4   6     0.02  -0.01  -0.00     0.00  -0.00  -0.16    -0.00  -0.00   0.15
   5   1     0.03  -0.03  -0.02    -0.29  -0.15  -0.05    -0.29  -0.15  -0.05
   6   1     0.01  -0.02  -0.00    -0.00  -0.00  -0.50    -0.00  -0.00  -0.51
   7   1     0.03  -0.03   0.02     0.29   0.15  -0.06     0.29   0.15  -0.05
   8   1    -0.04   0.38   0.29     0.00  -0.01  -0.00     0.03  -0.01   0.00
   9   1    -0.04   0.38  -0.28    -0.00   0.01   0.00    -0.03   0.01   0.00
  10   1     0.04  -0.38   0.28     0.00  -0.01   0.00    -0.03   0.01   0.00
  11   1     0.04  -0.38  -0.28    -0.00   0.01   0.00     0.03  -0.01   0.00
  12   1    -0.03   0.03   0.02     0.29   0.15   0.06    -0.29  -0.15  -0.05
  13   1    -0.03   0.03  -0.02    -0.29  -0.15   0.06     0.29   0.15  -0.05
  14   1    -0.01   0.02   0.00    -0.00   0.00   0.51     0.00  -0.00  -0.50
                     25                     26                     27
                        a                      a                      a 
 Frequencies --  1507.8807              1508.7341              2958.2791
 Red. masses --     1.7089                 1.5928                 1.9238
 Frc consts  --     0.0000                 0.0000                 0.0000
 IR Inten    --     2.3969                 0.0000                 0.0002
 Raman Activ --     0.0000                 0.0000                 0.0000
 Depolar     --     0.0000                 0.0000                 0.0000
 Atom AN      X      Y      Z        X      Y      Z        X      Y      Z
   1   6    -0.06  -0.13   0.00     0.05   0.14  -0.00     0.00   0.00  -0.01
   2   6    -0.00  -0.10  -0.00     0.04   0.05  -0.00     0.00  -0.00   0.20
   3   6    -0.00  -0.10   0.00    -0.04  -0.05  -0.00     0.00  -0.00  -0.20
   4   6    -0.06  -0.13   0.00    -0.05  -0.14  -0.00     0.00   0.00   0.01
   5   1     0.04   0.34   0.24    -0.04  -0.37  -0.26     0.01  -0.03   0.03
   6   1     0.14  -0.16   0.00    -0.16   0.18   0.00    -0.00  -0.00  -0.00
   7   1     0.04   0.34  -0.24    -0.04  -0.37   0.26    -0.01   0.03   0.03
   8   1    -0.01   0.15   0.12    -0.03  -0.02  -0.02    -0.04   0.29  -0.38
   9   1    -0.01   0.15  -0.11    -0.03  -0.02   0.02     0.04  -0.29  -0.38
  10   1    -0.01   0.15  -0.11     0.03   0.02  -0.02    -0.04   0.29   0.38
  11   1    -0.01   0.15   0.11     0.03   0.02   0.02     0.04  -0.29   0.38
  12   1     0.04   0.34   0.24     0.04   0.37   0.26    -0.01   0.03  -0.03
  13   1     0.04   0.34  -0.24     0.04   0.37  -0.26     0.01  -0.03  -0.03
  14   1     0.14  -0.16   0.00     0.16  -0.18   0.00    -0.00  -0.00   0.00
                     28                     29                     30
                        a                      a                      a 
 Frequencies --  2971.7027              2976.2091              2982.4126
 Red. masses --     2.0187                 1.4481                 1.5156
 Frc consts  --     0.0000                 0.0000                 0.0000
 IR Inten    --    80.8417                 0.0078                62.0356
 Raman Activ --     0.0000                 0.0000                 0.0000
 Depolar     --     0.0000                 0.0000                 0.0000
 Atom AN      X      Y      Z        X      Y      Z        X      Y      Z
   1   6    -0.00  -0.00   0.03    -0.01  -0.00  -0.00    -0.01  -0.03  -0.00
   2   6    -0.00   0.00  -0.21    -0.02   0.14   0.00    -0.02   0.15   0.00
   3   6     0.00  -0.00  -0.21     0.02  -0.14   0.00    -0.02   0.15  -0.00
   4   6     0.00   0.00   0.03     0.01   0.00  -0.00    -0.01  -0.03   0.00
   5   1    -0.01   0.05  -0.06    -0.00   0.01  -0.01    -0.01   0.04  -0.06
   6   1     0.00   0.00   0.01     0.02   0.02  -0.00     0.05   0.05  -0.00
   7   1     0.01  -0.05  -0.06    -0.00   0.01   0.01    -0.01   0.04   0.06
   8   1     0.05  -0.28   0.38     0.04  -0.26   0.41     0.04  -0.26   0.40
   9   1    -0.04   0.28   0.37     0.04  -0.27  -0.41     0.04  -0.26  -0.40
  10   1    -0.05   0.28   0.38    -0.04   0.26   0.41     0.04  -0.26  -0.40
  11   1     0.04  -0.28   0.37    -0.04   0.27  -0.41     0.04  -0.26   0.40
  12   1    -0.01   0.05  -0.06     0.00  -0.01   0.01    -0.01   0.04  -0.06
  13   1     0.01  -0.05  -0.06     0.00  -0.01  -0.01    -0.01   0.04   0.06
  14   1    -0.00  -0.00   0.01    -0.02  -0.02  -0.00     0.05   0.05  -0.00
                     31                     32                     33
                        a                      a                      a 
 Frequencies --  3027.7188              3029.7329              3030.1572
 Red. masses --     1.9557                 1.9603                 1.9105
 Frc consts  --     0.0000                 0.0000                 0.0000
 IR Inten    --     0.0021               118.9905                 0.2372
 Raman Activ --     0.0000                 0.0000                 0.0000
 Depolar     --     0.0000                 0.0000                 0.0000
 Atom AN      X      Y      Z        X      Y      Z        X      Y      Z
   1   6     0.00   0.00   0.21     0.00   0.01   0.20     0.06   0.19  -0.01
   2   6    -0.00   0.00   0.02    -0.00   0.00   0.04    -0.00   0.01  -0.00
   3   6    -0.00   0.00  -0.02    -0.00  -0.00   0.04     0.00  -0.01  -0.00
   4   6     0.00  -0.00  -0.21    -0.00  -0.01   0.20    -0.06  -0.19  -0.01
   5   1    -0.05   0.28  -0.37    -0.05   0.27  -0.36     0.05  -0.20   0.33
   6   1    -0.00  -0.00   0.03    -0.01  -0.01   0.03    -0.32  -0.30  -0.00
   7   1     0.05  -0.29  -0.38     0.05  -0.29  -0.39     0.04  -0.17  -0.29
   8   1    -0.00   0.02  -0.03    -0.01   0.05  -0.06     0.00  -0.01   0.02
   9   1     0.00  -0.02  -0.03     0.01  -0.05  -0.06     0.00  -0.01  -0.01
  10   1    -0.00   0.02   0.03     0.01  -0.05  -0.06    -0.00   0.01   0.02
  11   1     0.00  -0.02   0.03    -0.01   0.05  -0.06    -0.00   0.01  -0.01
  12   1     0.05  -0.29   0.38    -0.05   0.29  -0.39    -0.05   0.17  -0.29
  13   1    -0.05   0.29   0.38     0.05  -0.27  -0.36    -0.05   0.20   0.32
  14   1     0.00   0.00  -0.03     0.01   0.01   0.03     0.32   0.30  -0.00
                     34                     35                     36
                        a                      a                      a 
 Frequencies --  3032.7514              3036.8780              3037.5889
 Red. masses --     1.9112                 1.2769                 1.2849
 Frc consts  --     0.0000                 0.0000                 0.0000
 IR Inten    --   114.2772                60.6648                 0.0002
 Raman Activ --     0.0000                 0.0000                 0.0000
 Depolar     --     0.0000                 0.0000                 0.0000
 Atom AN      X      Y      Z        X      Y      Z        X      Y      Z
   1   6    -0.07  -0.19   0.00    -0.11   0.00  -0.00     0.11   0.00   0.00
   2   6     0.00  -0.03   0.00    -0.00   0.01  -0.00     0.00   0.00   0.00
   3   6     0.00  -0.03   0.00    -0.00   0.01  -0.00    -0.00  -0.00   0.00
   4   6    -0.07  -0.19  -0.00    -0.11   0.00   0.00    -0.11  -0.00   0.00
   5   1    -0.05   0.18  -0.30     0.02  -0.19   0.28    -0.02   0.19  -0.27
   6   1     0.33   0.31  -0.00     0.35   0.37  -0.00    -0.36  -0.38   0.00
   7   1    -0.05   0.18   0.29     0.02  -0.19  -0.27    -0.02   0.19   0.27
   8   1    -0.01   0.05  -0.07     0.00  -0.01   0.01     0.00  -0.00   0.00
   9   1    -0.01   0.05   0.07     0.00  -0.01  -0.01     0.00  -0.00  -0.00
  10   1    -0.01   0.05   0.07     0.00  -0.01  -0.01    -0.00   0.00   0.00
  11   1    -0.01   0.05  -0.07     0.00  -0.01   0.01    -0.00   0.00  -0.00
  12   1    -0.05   0.18  -0.30     0.02  -0.19   0.28     0.02  -0.19   0.27
  13   1    -0.05   0.18   0.30     0.02  -0.19  -0.28     0.02  -0.19  -0.27
  14   1     0.33   0.31  -0.00     0.35   0.37  -0.00     0.36   0.38  -0.00
