      -----------------------------------------------------------      
     |                   =====================                   |     
     |                           x T B                           |     
     |                   =====================                   |     
     |                         S. Grimme                         |     
     |          Mulliken Center for Theoretical Chemistry        |     
     |                    University of Bonn                     |     
      -----------------------------------------------------------      

   * xtb version 6.6.1 (8d0f1dd) compiled by 'stahn@M-Bot' on 2023-08-01

   xtb is free software: you can redistribute it and/or modify it under
   the terms of the GNU Lesser General Public License as published by
   the Free Software Foundation, either version 3 of the License, or
   (at your option) any later version.
   
   xtb is distributed in the hope that it will be useful,
   but WITHOUT ANY WARRANTY; without even the implied warranty of
   MERCHANTABILITY or FITNESS FOR A PARTICULAR PURPOSE.  See the
   GNU Lesser General Public License for more details.
   
   Cite this work as:
   * C. Bannwarth, E. Caldeweyher, S. Ehlert, A. Hansen, P. Pracht,
     J. Seibert, S. Spicher, S. Grimme, WIREs Comput. Mol. Sci., 2020, 11,
     e01493. DOI: 10.1002/wcms.1493
   
   for GFN2-xTB:
   * C. Bannwarth, S. Ehlert and S. Grimme., J. Chem. Theory Comput., 2019,
     15, 1652-1671. DOI: 10.1021/acs.jctc.8b01176
   for GFN1-xTB:
   * S. Grimme, C. Bannwarth, P. Shushkov, J. Chem. Theory Comput., 2017,
     13, 1989-2009. DOI: 10.1021/acs.jctc.7b00118
   for GFN0-xTB:
   * P. Pracht, E. Caldeweyher, S. Ehlert, S. Grimme, ChemRxiv, 2019, preprint.
     DOI: 10.26434/chemrxiv.8326202.v1
   for GFN-FF:
   * S. Spicher and S. Grimme, Angew. Chem. Int. Ed., 2020, 59, 15665-15673.
     DOI: 10.1002/anie.202004239
   
   for ALPB and GBSA implicit solvation:
   * S. Ehlert, M. Stahn, S. Spicher, S. Grimme, J. Chem. Theory Comput.,
     2021, 17, 4250-4261. DOI: 10.1021/acs.jctc.1c00471
   
   for DFT-D4:
   * E. Caldeweyher, C. Bannwarth and S. Grimme, J. Chem. Phys., 2017,
     147, 034112. DOI: 10.1063/1.4993215
   * E. Caldeweyher, S. Ehlert, A. Hansen, H. Neugebauer, S. Spicher,
     C. Bannwarth and S. Grimme, J. Chem. Phys., 2019, 150, 154122.
     DOI: 10.1063/1.5090222
   * E. Caldeweyher, J.-M. Mewes, S. Ehlert and S. Grimme, Phys. Chem. Chem. Phys.
     2020, 22, 8499-8512. DOI: 10.1039/D0CP00502A
   
   for sTDA-xTB:
   * S. Grimme and C. Bannwarth, J. Chem. Phys., 2016, 145, 054103.
     DOI: 10.1063/1.4959605
   
   in the mass-spec context:
   * V. Asgeirsson, C. Bauer and S. Grimme, Chem. Sci., 2017, 8, 4879.
     DOI: 10.1039/c7sc00601b
   * J. Koopman and S. Grimme, ACS Omega 2019, 4, 12, 15120-15133.
     DOI: 10.1021/acsomega.9b02011
   
   for metadynamics refer to:
   * S. Grimme, J. Chem. Theory Comput., 2019, 155, 2847-2862
     DOI: 10.1021/acs.jctc.9b00143
   
   for SPH calculations refer to:
   * S. Spicher and S. Grimme, J. Chem. Theory Comput., 2021, 17, 1701-1714
     DOI: 10.1021/acs.jctc.0c01306
   
   with help from (in alphabetical order)
   P. Atkinson, C. Bannwarth, F. Bohle, G. Brandenburg, E. Caldeweyher
   M. Checinski, S. Dohm, S. Ehlert, S. Ehrlich, I. Gerasimov, C. Hölzer
   A. Katbashev, J. Koopman, C. Lavigne, S. Lehtola, F. März, M. Müller,
   F. Musil, H. Neugebauer, J. Pisarek, C. Plett, P. Pracht, F. Pultar,
   J. Seibert, P. Shushkov, S. Spicher, M. Stahn, M. Steiner, T. Strunk,
   J. Stückrath, T. Rose, and J. Unsleber
   
 * started run on 2024/04/23 at 12:09:57.772     

           -------------------------------------------------
          |                Calculation Setup                |
           -------------------------------------------------

          program call               : xtb unfolded.xyz --gfn 2 --ohess -P 4
          coordinate file            : unfolded.xyz
          omp threads                :                     4

   ID    Z sym.   atoms
    1    6 C      1-4
    2    1 H      5-14

           -------------------------------------------------
          |                 G F N 2 - x T B                 |
           -------------------------------------------------

        Reference                      10.1021/acs.jctc.8b01176
      * Hamiltonian:
        H0-scaling (s, p, d)           1.850000    2.230000    2.230000
        zeta-weighting                 0.500000
      * Dispersion:
        s8                             2.700000
        a1                             0.520000
        a2                             5.000000
        s9                             5.000000
      * Repulsion:
        kExp                           1.500000    1.000000
        rExp                           1.000000
      * Coulomb:
        alpha                          2.000000
        third order                    shell-resolved
        anisotropic                    true
        a3                             3.000000
        a5                             4.000000
        cn-shift                       1.200000
        cn-exp                         4.000000
        max-rad                        5.000000


          ...................................................
          :                      SETUP                      :
          :.................................................:
          :  # basis functions                  26          :
          :  # atomic orbitals                  26          :
          :  # shells                           18          :
          :  # electrons                        26          :
          :  max. iterations                   250          :
          :  Hamiltonian                  GFN2-xTB          :
          :  restarted?                      false          :
          :  GBSA solvation                  false          :
          :  PC potential                    false          :
          :  electronic temp.          300.0000000     K    :
          :  accuracy                    1.0000000          :
          :  -> integral cutoff          0.2500000E+02      :
          :  -> integral neglect         0.1000000E-07      :
          :  -> SCF convergence          0.1000000E-05 Eh   :
          :  -> wf. convergence          0.1000000E-03 e    :
          :  Broyden damping             0.4000000          :
          ...................................................

 iter      E             dE          RMSdq      gap      omega  full diag
   1    -13.8286251 -0.138286E+02  0.258E+00   13.93       0.0  T
   2    -13.8687749 -0.401498E-01  0.136E+00   13.54       1.0  T
   3    -13.8692034 -0.428492E-03  0.730E-01   13.52       1.0  T
   4    -13.8693165 -0.113097E-03  0.923E-02   13.53       1.0  T
   5    -13.8693230 -0.659066E-05  0.518E-02   13.53       1.0  T
   6    -13.8693233 -0.296970E-06  0.177E-03   13.53      15.1  T
   7    -13.8693233 -0.409253E-08  0.723E-04   13.53      37.0  T
   8    -13.8693233 -0.452193E-09  0.115E-04   13.53     231.8  T

   *** convergence criteria satisfied after 8 iterations ***

         #    Occupation            Energy/Eh            Energy/eV
      -------------------------------------------------------------
         1        2.0000           -0.6170626             -16.7911
       ...           ...                  ...                  ...
         7        2.0000           -0.4892760             -13.3139
         8        2.0000           -0.4778560             -13.0031
         9        2.0000           -0.4547984             -12.3757
        10        2.0000           -0.4396206             -11.9627
        11        2.0000           -0.4383557             -11.9283
        12        2.0000           -0.4266041             -11.6085
        13        2.0000           -0.4173066             -11.3555 (HOMO)
        14                          0.0798922               2.1740 (LUMO)
        15                          0.1138075               3.0969
        16                          0.1264346               3.4405
        17                          0.1521822               4.1411
        18                          0.1588988               4.3239
       ...                                ...                  ...
        26                          0.2943593               8.0099
      -------------------------------------------------------------
                  HL-Gap            0.4971988 Eh           13.5295 eV
             Fermi-level           -0.1687072 Eh           -4.5908 eV

 SCC (total)                   0 d,  0 h,  0 min,  0.004 sec
 SCC setup                      ...        0 min,  0.000 sec (  7.888%)
 Dispersion                     ...        0 min,  0.000 sec (  2.064%)
 classical contributions        ...        0 min,  0.000 sec (  0.473%)
 integral evaluation            ...        0 min,  0.000 sec (  6.552%)
 iterations                     ...        0 min,  0.002 sec ( 61.859%)
 molecular gradient             ...        0 min,  0.001 sec ( 13.914%)
 printout                       ...        0 min,  0.000 sec (  6.499%)

         :::::::::::::::::::::::::::::::::::::::::::::::::::::
         ::                     SUMMARY                     ::
         :::::::::::::::::::::::::::::::::::::::::::::::::::::
         :: total energy             -13.664358800159 Eh    ::
         :: gradient norm              0.019395282433 Eh/a0 ::
         :: HOMO-LUMO gap             13.529468673070 eV    ::
         ::.................................................::
         :: SCC energy               -13.869323346532 Eh    ::
         :: -> isotropic ES            0.002828131638 Eh    ::
         :: -> anisotropic ES          0.005121604786 Eh    ::
         :: -> anisotropic XC          0.008978463665 Eh    ::
         :: -> dispersion             -0.006037235095 Eh    ::
         :: repulsion energy           0.204960691840 Eh    ::
         :: add. restraining           0.000000000000 Eh    ::
         :: total charge               0.000000000000 e     ::
         :::::::::::::::::::::::::::::::::::::::::::::::::::::

      ----------------------------------------------------------- 
     |                   =====================                   |
     |                        A N C O P T                        |
     |                   =====================                   |
     |               Approximate Normal Coordinate               |
     |                Rational Function Optimizer                |
      ----------------------------------------------------------- 

          ...................................................
          :                      SETUP                      :
          :.................................................:
          :   optimization level            normal          :
          :   max. optcycles                   200          :
          :   ANC micro-cycles                  20          :
          :   degrees of freedom                36          :
          :.................................................:
          :   RF solver                   davidson          :
          :   write xtbopt.log                true          :
          :   linear?                        false          :
          :   energy convergence         0.5000000E-05 Eh   :
          :   grad. convergence          0.1000000E-02 Eh/α :
          :   maxmium RF displ.          2.0000000          :
          :   Hlow (freq-cutoff)         0.2000000E-01      :
          :   Hmax (freq-cutoff)         5.0000000          :
          :   S6 in model hess.         70.0000000          :
          ...................................................

generating ANC from model Hessian ...
Using Lindh-Hessian (1995)
 Shifting diagonal of input Hessian by   1.404991461420860E-002
 Lowest  eigenvalues of input Hessian
    0.000000    0.000000    0.000000    0.000000    0.000000    0.000000
    0.020000    0.024861    0.025993    0.029717    0.034269    0.057333
    0.060642    0.065207    0.069544    0.070097    0.071605    0.080038
 Highest eigenvalues
    1.117193    1.131307    1.169864    1.216110    1.222282    1.307352
 

........................................................................
.............................. CYCLE    1 ..............................
........................................................................

 iter      E             dE          RMSdq      gap      omega  full diag
   1    -13.8693233 -0.138693E+02  0.205E-05   13.53       0.0  T
   2    -13.8693233 -0.256861E-11  0.782E-06   13.53    3415.6  T
   3    -13.8693233 -0.532907E-14  0.426E-06   13.53    6267.9  T
     SCC iter.                  ...        0 min,  0.001 sec
     gradient                   ...        0 min,  0.001 sec
 * total energy  :   -13.6643588 Eh     change       -0.7039702E-11 Eh
   gradient norm :     0.0193950 Eh/α   predicted     0.0000000E+00 (-100.00%)
   displ. norm   :     0.1110835 α      lambda       -0.1118719E-02
   maximum displ.:     0.0633377 α      in ANC's #14, #8, #10, ...

........................................................................
.............................. CYCLE    2 ..............................
........................................................................

 iter      E             dE          RMSdq      gap      omega  full diag
   1    -13.8735759 -0.138736E+02  0.161E-01   13.80       0.0  T
   2    -13.8735777 -0.183646E-05  0.925E-02   13.80       1.0  T
   3    -13.8735780 -0.281784E-06  0.410E-03   13.80       6.5  T
   4    -13.8735780 -0.390227E-08  0.144E-03   13.80      18.5  T
   5    -13.8735780  0.143139E-10  0.237E-04   13.80     112.9  T
   6    -13.8735780 -0.190161E-09  0.353E-05   13.80     757.5  T
     SCC iter.                  ...        0 min,  0.001 sec
     gradient                   ...        0 min,  0.001 sec
 * total energy  :   -13.6650506 Eh     change       -0.6917662E-03 Eh
   gradient norm :     0.0086767 Eh/α   predicted    -0.5662621E-03 ( -18.14%)
   displ. norm   :     0.0328670 α      lambda       -0.1339718E-03
   maximum displ.:     0.0236284 α      in ANC's #14, #5, #10, ...

........................................................................
.............................. CYCLE    3 ..............................
........................................................................

 iter      E             dE          RMSdq      gap      omega  full diag
   1    -13.8758773 -0.138759E+02  0.488E-02   13.82       0.0  T
   2    -13.8758783 -0.104730E-05  0.271E-02   13.82       1.0  T
   3    -13.8758784 -0.302286E-07  0.416E-03   13.82       6.4  T
   4    -13.8758784 -0.844300E-08  0.584E-04   13.82      45.7  T
   5    -13.8758784 -0.450481E-09  0.321E-04   13.82      83.1  T
     SCC iter.                  ...        0 min,  0.001 sec
     gradient                   ...        0 min,  0.001 sec
 * total energy  :   -13.6651242 Eh     change       -0.7358482E-04 Eh
   gradient norm :     0.0021845 Eh/α   predicted    -0.6706020E-04 (  -8.87%)
   displ. norm   :     0.0033590 α      lambda       -0.5608062E-05
   maximum displ.:     0.0018952 α      in ANC's #36, #5, #35, ...

........................................................................
.............................. CYCLE    4 ..............................
........................................................................

 iter      E             dE          RMSdq      gap      omega  full diag
   1    -13.8760946 -0.138761E+02  0.425E-03   13.81       0.0  T
   2    -13.8760946 -0.423071E-07  0.248E-03   13.81      10.8  T
   3    -13.8760946 -0.188580E-09  0.972E-04   13.81      27.5  T
   4    -13.8760946 -0.400231E-10  0.559E-05   13.81     478.1  T
     SCC iter.                  ...        0 min,  0.001 sec
     gradient                   ...        0 min,  0.001 sec
 * total energy  :   -13.6651275 Eh     change       -0.3324828E-05 Eh
   gradient norm :     0.0004361 Eh/α   predicted    -0.2802269E-05 ( -15.72%)
   displ. norm   :     0.0028992 α      lambda       -0.4549017E-06
   maximum displ.:     0.0018931 α      in ANC's #10, #8, #14, ...

   *** GEOMETRY OPTIMIZATION CONVERGED AFTER 4 ITERATIONS ***

------------------------------------------------------------------------
 total energy gain   :        -0.0007687 Eh       -0.4824 kcal/mol
 total RMSD          :         0.0378843 a0        0.0200 Å
 total power (kW/mol):        -0.5045396 (step) -194.8208 (real)
------------------------------------------------------------------------

 ANCopt (total)                0 d,  0 h,  0 min,  0.010 sec
 optimizer setup                ...        0 min,  0.001 sec (  7.086%)
 model hessian                  ...        0 min,  0.002 sec ( 19.582%)
 ANC generation                 ...        0 min,  0.000 sec (  2.282%)
 coordinate transformation      ...        0 min,  0.000 sec (  0.367%)
 single point calculation       ...        0 min,  0.006 sec ( 59.501%)
 optimization log               ...        0 min,  0.000 sec (  2.254%)
 hessian update                 ...        0 min,  0.000 sec (  0.569%)
 rational function              ...        0 min,  0.000 sec (  3.691%)

================
 final structure:
================
14
 xtb: 6.6.1 (8d0f1dd)
C           -1.93744489528079        0.13507264624846        0.00042946835041
C           -0.56109959401183       -0.51762873888261       -0.00048000932287
C            0.56112275976365        0.51762072380377       -0.00059309775423
C            1.93754714458449       -0.13490883754801        0.00054701359500
H           -2.06454307544338        0.75925730528253       -0.88165978749337
H           -2.72032721944212       -0.61995615106200        0.00200117207924
H           -2.06251860278373        0.76080115495537        0.88172224861596
H           -0.46126716629841       -1.15542547732138        0.88101832338182
H           -0.46211735566004       -1.15483397349911       -0.88249227068283
H            0.46122070680427        1.15562116428131        0.88074934629081
H            0.46210192310095        1.15460791875489       -0.88276077565878
H            2.06335459738506       -0.75904351269912        0.88286294280917
H            2.06413783222864       -0.76064176215367       -0.88052121202237
H            2.72029194505325        0.62026353983956        0.00022663781205
           -------------------------------------------------
          |                Final Singlepoint                |
           -------------------------------------------------

          ...................................................
          :                      SETUP                      :
          :.................................................:
          :  # basis functions                  26          :
          :  # atomic orbitals                  26          :
          :  # shells                           18          :
          :  # electrons                        26          :
          :  max. iterations                   250          :
          :  Hamiltonian                  GFN2-xTB          :
          :  restarted?                      false          :
          :  GBSA solvation                  false          :
          :  PC potential                    false          :
          :  electronic temp.          300.0000000     K    :
          :  accuracy                    1.0000000          :
          :  -> integral cutoff          0.2500000E+02      :
          :  -> integral neglect         0.1000000E-07      :
          :  -> SCF convergence          0.1000000E-05 Eh   :
          :  -> wf. convergence          0.1000000E-03 e    :
          :  Broyden damping             0.4000000          :
          ...................................................

 iter      E             dE          RMSdq      gap      omega  full diag
   1    -13.8760946 -0.138761E+02  0.277E-05   13.81       0.0  T
   2    -13.8760946 -0.301981E-12  0.153E-05   13.81    1748.7  T
   3    -13.8760946 -0.888178E-13  0.169E-06   13.81   15773.9  T

   *** convergence criteria satisfied after 3 iterations ***

         #    Occupation            Energy/Eh            Energy/eV
      -------------------------------------------------------------
         1        2.0000           -0.6180080             -16.8169
       ...           ...                  ...                  ...
         7        2.0000           -0.4879078             -13.2766
         8        2.0000           -0.4790045             -13.0344
         9        2.0000           -0.4546558             -12.3718
        10        2.0000           -0.4394977             -11.9593
        11        2.0000           -0.4367633             -11.8849
        12        2.0000           -0.4257621             -11.5856
        13        2.0000           -0.4195551             -11.4167 (HOMO)
        14                          0.0879929               2.3944 (LUMO)
        15                          0.1268097               3.4507
        16                          0.1277602               3.4765
        17                          0.1527238               4.1558
        18                          0.1628973               4.4327
       ...                                ...                  ...
        26                          0.3115150               8.4768
      -------------------------------------------------------------
                  HL-Gap            0.5075480 Eh           13.8111 eV
             Fermi-level           -0.1657811 Eh           -4.5111 eV

 SCC (total)                   0 d,  0 h,  0 min,  0.002 sec
 SCC setup                      ...        0 min,  0.000 sec ( 12.776%)
 Dispersion                     ...        0 min,  0.000 sec (  1.457%)
 classical contributions        ...        0 min,  0.000 sec (  0.735%)
 integral evaluation            ...        0 min,  0.000 sec ( 11.707%)
 iterations                     ...        0 min,  0.001 sec ( 29.707%)
 molecular gradient             ...        0 min,  0.001 sec ( 28.358%)
 printout                       ...        0 min,  0.000 sec ( 13.618%)

         :::::::::::::::::::::::::::::::::::::::::::::::::::::
         ::                     SUMMARY                     ::
         :::::::::::::::::::::::::::::::::::::::::::::::::::::
         :: total energy             -13.665127476054 Eh    ::
         :: gradient norm              0.000436091778 Eh/a0 ::
         :: HOMO-LUMO gap             13.811085304665 eV    ::
         ::.................................................::
         :: SCC energy               -13.876094641209 Eh    ::
         :: -> isotropic ES            0.002997508693 Eh    ::
         :: -> anisotropic ES          0.004906133988 Eh    ::
         :: -> anisotropic XC          0.009057968115 Eh    ::
         :: -> dispersion             -0.006049490544 Eh    ::
         :: repulsion energy           0.210963294448 Eh    ::
         :: add. restraining           0.000000000000 Eh    ::
         :: total charge               0.000000000000 e     ::
         :::::::::::::::::::::::::::::::::::::::::::::::::::::

           ------------------------------------------------- 
          |                Numerical Hessian                |
           ------------------------------------------------- 
step length          :   0.00500
SCC accuracy         :   0.30000
Hessian scale factor :   1.00000
frozen atoms in %    :   0.00000    0
RMS gradient         :   0.00044
estimated CPU  time      0.02 min
estimated wall time      0.00 min

writing file <hessian>.

 projected vibrational frequencies (cm⁻¹)
eigval :       -0.00    -0.00     0.00     0.00     0.00     0.00
eigval :      108.41   214.08   246.26   265.30   427.07   776.57
eigval :      847.55   893.61   967.80  1002.58  1075.58  1110.94
eigval :     1164.52  1202.17  1257.86  1285.55  1304.33  1372.46
eigval :     1415.11  1418.55  1497.07  1499.82  1505.19  1505.39
eigval :     1507.88  1508.73  2958.28  2971.70  2976.21  2982.41
eigval :     3027.72  3029.73  3030.16  3032.75  3036.88  3037.59
           -------------------------------------------------
          |                Property Printout                |
           -------------------------------------------------

    * Orbital Energies and Occupations

         #    Occupation            Energy/Eh            Energy/eV
      -------------------------------------------------------------
         1        2.0000           -0.6180080             -16.8169
         2        2.0000           -0.5990133             -16.3000
         3        2.0000           -0.5679297             -15.4542
         4        2.0000           -0.5524011             -15.0316
         5        2.0000           -0.5138781             -13.9833
         6        2.0000           -0.4918714             -13.3845
         7        2.0000           -0.4879078             -13.2766
         8        2.0000           -0.4790045             -13.0344
         9        2.0000           -0.4546558             -12.3718
        10        2.0000           -0.4394977             -11.9593
        11        2.0000           -0.4367633             -11.8849
        12        2.0000           -0.4257621             -11.5856
        13        2.0000           -0.4195551             -11.4167 (HOMO)
        14                          0.0879929               2.3944 (LUMO)
        15                          0.1268098               3.4507
        16                          0.1277602               3.4765
        17                          0.1527238               4.1558
        18                          0.1628973               4.4327
        19                          0.1838263               5.0022
        20                          0.1937936               5.2734
        21                          0.1970585               5.3622
        22                          0.2247326               6.1153
        23                          0.2548781               6.9356
        24                          0.2646375               7.2012
       ...                                ...                  ...
        26                          0.3115150               8.4768
      -------------------------------------------------------------
                  HL-Gap            0.5075480 Eh           13.8111 eV
             Fermi-level           -0.1657811 Eh           -4.5111 eV

     #   Z          covCN         q      C6AA      α(0)
     1   6 C        3.752    -0.102    22.510     6.766
     2   6 C        3.801    -0.053    21.534     6.607
     3   6 C        3.801    -0.053    21.534     6.607
     4   6 C        3.752    -0.102    22.510     6.766
     5   1 H        0.925     0.033     2.550     2.497
     6   1 H        0.925     0.032     2.554     2.499
     7   1 H        0.925     0.033     2.550     2.497
     8   1 H        0.924     0.029     2.600     2.522
     9   1 H        0.924     0.029     2.600     2.522
    10   1 H        0.924     0.029     2.600     2.522
    11   1 H        0.924     0.029     2.600     2.522
    12   1 H        0.925     0.033     2.550     2.497
    13   1 H        0.925     0.033     2.550     2.497
    14   1 H        0.925     0.032     2.554     2.499

 Mol. C6AA /au·bohr⁶  :       1207.511005
 Mol. C8AA /au·bohr⁸  :      24480.613567
 Mol. α(0) /au        :         51.819687


Wiberg/Mayer (AO) data.
largest (>0.10) Wiberg bond orders for each atom

 ---------------------------------------------------------------------------
     #   Z sym  total        # sym  WBO       # sym  WBO       # sym  WBO
 ---------------------------------------------------------------------------
     1   6 C    3.997 --     2 C    1.019     5 H    0.988     7 H    0.988
                             6 H    0.988
     2   6 C    3.998 --     1 C    1.019     3 C    1.009     9 H    0.979
                             8 H    0.979
     3   6 C    3.998 --     4 C    1.019     2 C    1.009    11 H    0.979
                            10 H    0.979
     4   6 C    3.997 --     3 C    1.019    13 H    0.988    12 H    0.988
                            14 H    0.988
     5   1 H    0.999 --     1 C    0.988
     6   1 H    0.999 --     1 C    0.988
     7   1 H    0.999 --     1 C    0.988
     8   1 H    0.999 --     2 C    0.979
     9   1 H    0.999 --     2 C    0.979
    10   1 H    0.999 --     3 C    0.979
    11   1 H    0.999 --     3 C    0.979
    12   1 H    0.999 --     4 C    0.988
    13   1 H    0.999 --     4 C    0.988
    14   1 H    0.999 --     4 C    0.988
 ---------------------------------------------------------------------------

Topologies differ in total number of bonds
Writing topology from bond orders to xtbtopo.mol

molecular dipole:
                 x           y           z       tot (Debye)
 q only:        0.000       0.000       0.000
   full:        0.000       0.000       0.000       0.000
molecular quadrupole (traceless):
                xx          xy          yy          xz          yz          zz
 q only:        0.181      -0.059      -0.007      -0.000      -0.000      -0.174
  q+dip:       -1.085       0.261       0.130      -0.000       0.000       0.955
   full:       -0.468       0.117       0.049      -0.000       0.000       0.420

           -------------------------------------------------
          |                Geometry Summary                 |
           -------------------------------------------------

      molecular mass/u    :       58.1223511
   center of mass at/Å    :        0.0000317       0.0000435      -0.0000001
  moments of inertia/u·Å² :        0.2162593E+02   0.1369527E+03   0.1460409E+03
rotational constants/cm⁻¹ :        0.7795102E+00   0.1230909E+00   0.1154309E+00

 * 13 selected distances

     #   Z          #   Z                                           value/Å
     1   6 C        2   6 C                                       1.5232684
     2   6 C        3   6 C                                       1.5268022 (max)
     3   6 C        4   6 C                                       1.5232664
     1   6 C        5   1 H                                       1.0880451
     1   6 C        6   1 H                                       1.0876470
     1   6 C        7   1 H                                       1.0880518
     2   6 C        8   1 H                                       1.0926073
     2   6 C        9   1 H                                       1.0925996
     3   6 C       10   1 H                                       1.0926068
     3   6 C       11   1 H                                       1.0926014
     4   6 C       12   1 H                                       1.0880502
     4   6 C       13   1 H                                       1.0880479
     4   6 C       14   1 H                                       1.0876466 (min)

 * 2 distinct bonds (by element types)

   Z      Z             #   av. dist./Å        max./Å        min./Å
   1 H    6 C          10     1.0897904     1.0926073     1.0876466
   6 C    6 C           3     1.5244457     1.5268022     1.5232664

           -------------------------------------------------
          |               Frequency Printout                |
           -------------------------------------------------
 projected vibrational frequencies (cm⁻¹)
eigval :       -0.00    -0.00     0.00     0.00     0.00     0.00
eigval :      108.41   214.08   246.26   265.30   427.07   776.57
eigval :      847.55   893.61   967.80  1002.58  1075.58  1110.94
eigval :     1164.52  1202.17  1257.86  1285.55  1304.33  1372.46
eigval :     1415.11  1418.55  1497.07  1499.82  1505.19  1505.39
eigval :     1507.88  1508.73  2958.28  2971.70  2976.21  2982.41
eigval :     3027.72  3029.73  3030.16  3032.75  3036.88  3037.59
 reduced masses (amu)
   1:  6.49   2:  8.82   3:  9.35   4:  9.76   5:  9.61   6:  8.53   7:  6.84   8:  1.52
   9:  2.26  10:  7.79  11:  8.80  12:  1.74  13:  2.22  14:  6.52  15:  2.00  16:  2.84
  17:  9.99  18:  8.15  19:  7.23  20:  6.02  21:  3.40  22:  1.77  23:  3.86  24:  5.19
  25:  3.27  26:  3.14  27:  1.87  28:  1.83  29:  1.56  30:  1.51  31:  1.71  32:  1.59
  33:  1.92  34:  2.02  35:  1.45  36:  1.52  37:  1.96  38:  1.96  39:  1.91  40:  1.91
  41:  1.28  42:  1.28
 IR intensities (km·mol⁻¹)
   1:  0.00   2:  0.00   3:  0.00   4:  0.00   5:  0.00   6:  0.00   7:  0.01   8:  0.02
   9:  0.00  10:  0.41  11:  0.00  12:  9.70  13:  0.00  14:  0.00  15:  2.42  16: 11.95
  17:  0.47  18:  0.00  19:  0.00  20:  0.00  21:  0.55  22:  0.00  23:  2.52  24:  0.00
  25:  0.00  26:  1.65  27:  0.62  28:  0.00  29:  0.00  30:  4.73  31:  2.40  32:  0.00
  33:  0.00  34: 80.84  35:  0.01  36: 62.04  37:  0.00  38:118.99  39:  0.24  40:114.28
  41: 60.66  42:  0.00
 Raman intensities (amu)
   1:  0.00   2:  0.00   3:  0.00   4:  0.00   5:  0.00   6:  0.00   7:  0.00   8:  0.00
   9:  0.00  10:  0.00  11:  0.00  12:  0.00  13:  0.00  14:  0.00  15:  0.00  16:  0.00
  17:  0.00  18:  0.00  19:  0.00  20:  0.00  21:  0.00  22:  0.00  23:  0.00  24:  0.00
  25:  0.00  26:  0.00  27:  0.00  28:  0.00  29:  0.00  30:  0.00  31:  0.00  32:  0.00
  33:  0.00  34:  0.00  35:  0.00  36:  0.00  37:  0.00  38:  0.00  39:  0.00  40:  0.00
  41:  0.00  42:  0.00
 output can be read by thermo (or use thermo option).
 writing <g98.out> molden fake output.
 recommended (thermochemical) frequency scaling factor: 1.0
           -------------------------------------------------
          |             Thermodynamic Functions             |
           -------------------------------------------------

Molecule has the following symmetry elements: (i) (C2) (sigma) 
It seems to be the C2h point group
c2h symmetry found (for desy threshold:  0.10E+00) used in thermo

          ...................................................
          :                      SETUP                      :
          :.................................................:
          :  # frequencies                          36      :
          :  # imaginary freq.                       0      :
          :  linear?                             false      :
          :  only rotor calc.                    false      :
          :  symmetry                              c2h      :
          :  rotational number                       2      :
          :  scaling factor                  1.0000000      :
          :  rotor cutoff                   50.0000000 cm⁻¹ :
          :  imag. cutoff                  -20.0000000 cm⁻¹ :
          :.................................................:

    mode    ω/cm⁻¹     T·S(HO)/kcal·mol⁻¹    T·S(FR)/kcal·mol⁻¹   T·S(vib)
   ------------------------------------------------------------------------
       1    108.41    -0.98306 ( 95.67%)    -0.82684 (  4.33%)    -0.97629
       2    214.08    -0.59886 ( 99.70%)    -0.62549 (  0.30%)    -0.59894
       3    246.26    -0.52391 ( 99.83%)    -0.58404 (  0.17%)    -0.52402
       4    265.30    -0.48497 ( 99.87%)    -0.56198 (  0.13%)    -0.48507
   ------------------------------------------------------------------------

   temp. (K)  partition function   enthalpy   heat capacity  entropy
                                   cal/mol     cal/K/mol   cal/K/mol   J/K/mol
 298.15  VIB   9.64                 1856.233     13.434     10.707
         ROT  0.251E+05              888.752      2.981     23.115
         INT  0.242E+06             2744.985     16.415     33.822
         TR   0.429E+27             1481.254      4.968     38.083
         TOT                        4226.2388    21.3827    71.9049   300.8499

       T/K    H(0)-H(T)+PV         H(T)/Eh          T*S/Eh         G(T)/Eh
   ------------------------------------------------------------------------
    298.15    0.673494E-02    0.137647E+00    0.341643E-01    0.103483E+00
   ------------------------------------------------------------------------

         :::::::::::::::::::::::::::::::::::::::::::::::::::::
         ::                  THERMODYNAMIC                  ::
         :::::::::::::::::::::::::::::::::::::::::::::::::::::
         :: total free energy         -13.561644632104 Eh   ::
         ::.................................................::
         :: total energy              -13.665127476054 Eh   ::
         :: zero point energy           0.130912218427 Eh   ::
         :: G(RRHO) w/o ZPVE           -0.027429374477 Eh   ::
         :: G(RRHO) contrib.            0.103482843950 Eh   ::
         :::::::::::::::::::::::::::::::::::::::::::::::::::::
 
 normal mode %tage of torsion character
   1:  0.00   2:  0.00   3:  0.00   4:  0.00   5:  0.00   6:  0.00   7:  0.51   8:  0.89
   9:  0.90  10:  0.13  11:  0.03  12:  0.50  13:  0.57  14:  0.13  15:  0.21  16:  0.09
  17:  0.03  18:  0.03  19:  0.08  20:  0.54  21:  0.14  22:  0.27  23:  0.07  24:  0.07
  25:  0.00  26:  0.00  27:  0.69  28:  0.60  29:  0.92  30:  0.93  31:  0.83  32:  0.88
  33:  0.45  34:  0.08  35:  0.01  36:  0.01  37:  0.05  38:  0.09  39:  0.04  40:  0.03
  41:  0.00  42:  0.00
 recommended # of modes for mode following           4

optimized geometry written to: xtbopt.xyz


           -------------------------------------------------
          | TOTAL ENERGY              -13.665127476054 Eh   |
          | TOTAL ENTHALPY            -13.527480317430 Eh   |
          | TOTAL FREE ENERGY         -13.561644632104 Eh   |
          | GRADIENT NORM               0.000436093329 Eh/α |
          | HOMO-LUMO GAP              13.811085289069 eV   |
           -------------------------------------------------

------------------------------------------------------------------------
 * finished run on 2024/04/23 at 12:09:57.931     
------------------------------------------------------------------------
 total:
 * wall-time:     0 d,  0 h,  0 min,  0.159 sec
 *  cpu-time:     0 d,  0 h,  0 min,  0.514 sec
 * ratio c/w:     3.233 speedup
 SCF:
 * wall-time:     0 d,  0 h,  0 min,  0.004 sec
 *  cpu-time:     0 d,  0 h,  0 min,  0.015 sec
 * ratio c/w:     3.548 speedup
 ANC optimizer:
 * wall-time:     0 d,  0 h,  0 min,  0.018 sec
 *  cpu-time:     0 d,  0 h,  0 min,  0.061 sec
 * ratio c/w:     3.449 speedup
 analytical hessian:
 * wall-time:     0 d,  0 h,  0 min,  0.075 sec
 *  cpu-time:     0 d,  0 h,  0 min,  0.288 sec
 * ratio c/w:     3.859 speedup

