14
 energy: -13.665127476054 gnorm: 0.000436091778 xtb: 6.6.1 (8d0f1dd)
C           -1.93744418650540        0.13508279143371        0.00043599556267
C           -0.56110230597086       -0.51762580180188       -0.00047714728322
C            0.56112546793485        0.51761778472885       -0.00059595986075
C            1.93754644007537       -0.13491898156437        0.00054048573992
H           -2.06454217752646        0.75926657642273       -0.88165390602580
H           -2.72033045848187       -0.61994190395988        0.00201174984018
H           -2.06251154140267        0.76081349314545        0.88172812030883
H           -0.46127014073374       -1.15542152446360        0.88102195009915
H           -0.46212648282761       -1.15483309406415       -0.88248864201671
H            0.46122983200961        1.15562028649924        0.88074571938070
H            0.46210488717321        1.15460395848523       -0.88276440386304
H            2.06335370478740       -0.75905277551658        0.88285706511702
H            2.06413077587455       -0.76065410672584       -0.88052708964563
H            2.72029519347902        0.62024929681035        0.00021605963774
