14
 energy: -13.664358800166 gnorm: 0.019394987129 xtb: 6.6.1 (8d0f1dd)
C           -1.94499400000000        0.13120700000000        0.00079800000000
C           -0.56758400000000       -0.51337500000000       -0.00083800000000
C            0.56743900000000        0.51313700000000       -0.00083400000000
C            1.94509700000000       -0.13104200000000        0.00077700000000
H           -2.08575700000000        0.76373000000000       -0.87826800000000
H           -2.74660500000000       -0.61126600000000        0.00250700000000
H           -2.08318100000000        0.76601600000000        0.87835600000000
H           -0.45828600000000       -1.17436800000000        0.86974400000000
H           -0.45927300000000       -1.17371900000000       -0.87207500000000
H            0.45799800000000        1.17402500000000        0.86978900000000
H            0.45910600000000        1.17358300000000       -0.87201000000000
H            2.08427300000000       -0.76360100000000        0.87979700000000
H            2.08576100000000       -0.76526500000000       -0.87695100000000
H            2.74646500000000        0.61174400000000        0.00025800000000
14
 energy: -13.665050566398 gnorm: 0.008676735010 xtb: 6.6.1 (8d0f1dd)
C           -1.93677039091725        0.13448860930333        0.00050933507573
C           -0.56306225369328       -0.51628563863327       -0.00063339199362
C            0.56302260887998        0.51613625540131       -0.00066450602557
C            1.93689959725535       -0.13430031431571        0.00063082560992
H           -2.07026155716933        0.76048806830818       -0.88176002026161
H           -2.72445337042401       -0.61816634848360        0.00237254398305
H           -2.06771567285578        0.76233719923461        0.88172577472440
H           -0.46123059146154       -1.16106608058344        0.87933293664420
H           -0.46233213893378       -1.16026372743674       -0.88130374149182
H            0.46111332583143        1.16091626216271        0.87928252958452
H            0.46217629911014        1.16008276699066       -0.88135572006193
H            2.06879796216879       -0.76022692857820        0.88306991223181
H            2.06994944058210       -0.76200230863036       -0.88045358026685
H            2.72432574162719        0.61866818526052        0.00029710224777
14
 energy: -13.665124151218 gnorm: 0.002184501130 xtb: 6.6.1 (8d0f1dd)
C           -1.93693003235458        0.13499817570753        0.00045501077041
C           -0.56156435992788       -0.51700910973224       -0.00055790937394
C            0.56157115935896        0.51695014272282       -0.00062436992757
C            1.93704731537122       -0.13481700270227        0.00058658738748
H           -2.06497957437979        0.75923748050868       -0.88178786905900
H           -2.72012086299725       -0.62012895502670        0.00217312755867
H           -2.06274621218813        0.76092323053315        0.88182475233120
H           -0.46144526545740       -1.15533680989050        0.88111439327701
H           -0.46238169629860       -1.15464417017782       -0.88282517536764
H            0.46137125749186        1.15540668424503        0.88094365867118
H            0.46231725120107        1.15443242093890       -0.88299712976337
H            2.06370126028668       -0.75903226886105        0.88304288390800
H            2.06457467646453       -0.76069468148690       -0.88057336448983
H            2.72004408342930        0.62052086322135        0.00027540407741
14
 energy: -13.665127476046 gnorm: 0.000436079325 xtb: 6.6.1 (8d0f1dd)
C           -1.93744489528079        0.13507264624846        0.00042946835041
C           -0.56109959401183       -0.51762873888261       -0.00048000932287
C            0.56112275976365        0.51762072380377       -0.00059309775423
C            1.93754714458449       -0.13490883754801        0.00054701359500
H           -2.06454307544338        0.75925730528253       -0.88165978749337
H           -2.72032721944212       -0.61995615106200        0.00200117207924
H           -2.06251860278373        0.76080115495537        0.88172224861596
H           -0.46126716629841       -1.15542547732138        0.88101832338182
H           -0.46211735566004       -1.15483397349911       -0.88249227068283
H            0.46122070680427        1.15562116428131        0.88074934629081
H            0.46210192310095        1.15460791875489       -0.88276077565878
H            2.06335459738506       -0.75904351269912        0.88286294280917
H            2.06413783222864       -0.76064176215367       -0.88052121202237
H            2.72029194505325        0.62026353983956        0.00022663781205
