 Entering Gaussian System
 *********************************************
 Gaussian 98:
 frequency output generated by the xtb code
 *********************************************
                         Standard orientation:
 --------------------------------------------------------------------
  Center     Atomic     Atomic              Coordinates (Angstroms)
  Number     Number      Type              X           Y           Z
 --------------------------------------------------------------------
    1          6             0        2.001225    3.387222    0.495869
    2          6             0        2.934552    2.255710    0.081478
    3          6             0        2.191593    0.927218   -0.032219
    4          6             0        3.110439   -0.218507   -0.454843
    5          6             0        2.349184   -1.521997   -0.703825
    6          6             0        1.868813   -2.182622    0.587510
    7          6             0        0.904804   -3.349104    0.359287
    8          6             0       -0.382332   -2.982362   -0.385977
    9          6             0       -1.130913   -1.805019    0.234615
   10          6             0       -2.426845   -1.497589   -0.511912
   11          6             0       -3.173047   -0.287907    0.053826
   12          6             0       -2.422822    1.029009   -0.139843
   13          6             0       -3.257732    2.235311    0.283297
   14          6             0       -2.483257    3.538451    0.124147
   15          1             0        1.555607    3.177692    1.466316
   16          1             0        2.542831    4.327785    0.563930
   17          1             0        1.199277    3.504473   -0.230230
   18          1             0        3.738386    2.159125    0.814998
   19          1             0        3.392556    2.497177   -0.880558
   20          1             0        1.733176    0.699747    0.932283
   21          1             0        1.387936    1.030943   -0.766201
   22          1             0        3.872274   -0.378676    0.311599
   23          1             0        3.624399    0.071124   -1.374894
   24          1             0        2.994648   -2.222710   -1.238995
   25          1             0        1.497591   -1.301839   -1.348471
   26          1             0        1.382380   -1.442561    1.222311
   27          1             0        2.737940   -2.554439    1.136780
   28          1             0        0.638883   -3.764314    1.334839
   29          1             0        1.417928   -4.133492   -0.202786
   30          1             0       -1.035354   -3.859032   -0.393245
   31          1             0       -0.150838   -2.748588   -1.427122
   32          1             0       -0.493100   -0.923207    0.205624
   33          1             0       -1.356881   -2.026665    1.280349
   34          1             0       -2.198437   -1.314228   -1.565092
   35          1             0       -3.082068   -2.371272   -0.466022
   36          1             0       -3.361780   -0.444146    1.118686
   37          1             0       -4.143332   -0.213224   -0.444150
   38          1             0       -1.501267    1.021269    0.444699
   39          1             0       -2.148864    1.135006   -1.192584
   40          1             0       -4.167462    2.276906   -0.320501
   41          1             0       -3.559417    2.117396    1.326753
   42          1             0       -1.589262    3.529049    0.744415
   43          1             0       -2.178835    3.676138   -0.911478
   44          1             0       -3.095109    4.388486    0.417126
 --------------------------------------------------------------------
     1 basis functions        1 primitive gaussians
     1 alpha electrons        1 beta electrons
 
 Harmonic frequencies (cm**-1), IR intensities (km*mol⁻¹),
 Raman scattering activities (A**4/amu), Raman depolarization ratios,
 reduced masses (AMU), force constants (mDyne/A) and normal coordinates:
                      1                      2                      3
                        a                      a                      a 
 Frequencies --    17.3635                23.4528                33.4729
 Red. masses --     9.7950                 9.1196                 7.9677
 Frc consts  --     0.0000                 0.0000                 0.0000
 IR Inten    --     0.0015                 0.0005                 0.0026
 Raman Activ --     0.0000                 0.0000                 0.0000
 Depolar     --     0.0000                 0.0000                 0.0000
 Atom AN      X      Y      Z        X      Y      Z        X      Y      Z
   1   6     0.52   0.07   0.10    -0.05  -0.00  -0.38    -0.11  -0.10  -0.10
   2   6     0.37  -0.01  -0.01     0.02  -0.03  -0.17     0.02  -0.09   0.16
   3   6     0.23   0.06   0.04     0.06  -0.06  -0.07     0.06  -0.10  -0.06
   4   6     0.09  -0.02  -0.06     0.12  -0.09   0.15     0.17  -0.09   0.15
   5   6    -0.05   0.06  -0.02     0.16  -0.11   0.15     0.23  -0.10   0.03
   6   6    -0.05   0.10   0.00    -0.02  -0.01   0.14     0.07  -0.11  -0.04
   7   6    -0.02   0.07   0.04    -0.05   0.02   0.10     0.00  -0.03  -0.16
   8   6    -0.03   0.03   0.02     0.03   0.05  -0.03     0.03   0.12  -0.14
   9   6    -0.07   0.01  -0.00     0.00   0.07  -0.11     0.10   0.11  -0.04
  10   6    -0.08  -0.06  -0.01     0.08   0.10  -0.24    -0.02   0.07   0.15
  11   6    -0.14  -0.09  -0.02    -0.03   0.01  -0.21     0.02   0.05   0.24
  12   6    -0.21  -0.06  -0.02    -0.04   0.06   0.07    -0.13   0.10  -0.05
  13   6    -0.26  -0.10  -0.02    -0.13  -0.03   0.15    -0.11   0.05   0.13
  14   6    -0.32  -0.06  -0.03    -0.14   0.02   0.44    -0.30   0.12  -0.25
  15   1     0.17   0.03   0.04    -0.03   0.03  -0.11    -0.11  -0.03  -0.07
  16   1     0.18   0.01   0.02    -0.02   0.01  -0.13    -0.04  -0.03   0.02
  17   1     0.13   0.05   0.05    -0.00  -0.04  -0.13     0.03  -0.03  -0.09
  18   1     0.13  -0.03  -0.03    -0.01   0.02  -0.03    -0.05  -0.03   0.11
  19   1     0.09  -0.01  -0.02     0.03  -0.04  -0.05     0.08  -0.02   0.08
  20   1     0.09   0.03   0.02    -0.01   0.01  -0.02    -0.05  -0.03  -0.05
  21   1     0.05   0.04   0.03     0.04  -0.05  -0.04     0.07  -0.02  -0.08
  22   1     0.04  -0.03  -0.04     0.01  -0.01   0.08     0.00  -0.02   0.09
  23   1     0.01  -0.01  -0.03     0.07  -0.05   0.05     0.10  -0.03   0.07
  24   1    -0.04  -0.00  -0.02     0.07  -0.05   0.09     0.09  -0.02   0.03
  25   1    -0.02   0.04   0.01     0.07  -0.05   0.01     0.09  -0.03  -0.02
  26   1    -0.02   0.03  -0.01    -0.02   0.02   0.01     0.02  -0.03  -0.01
  27   1    -0.01   0.04   0.00    -0.03  -0.00   0.08    -0.00  -0.06   0.01
  28   1    -0.01   0.03   0.01    -0.05   0.02   0.03    -0.01  -0.03  -0.06
  29   1    -0.00   0.02   0.02    -0.01  -0.01   0.05    -0.01  -0.00  -0.07
  30   1     0.00   0.00   0.01     0.00   0.02  -0.02    -0.01   0.05  -0.06
  31   1    -0.01   0.01   0.00     0.04   0.01  -0.00     0.01   0.06  -0.03
  32   1    -0.03   0.01  -0.00     0.01   0.02  -0.02     0.02   0.04  -0.04
  33   1    -0.02   0.00  -0.00    -0.03   0.02  -0.04     0.07   0.03  -0.00
  34   1    -0.03  -0.02  -0.00     0.06   0.06  -0.06    -0.06   0.01   0.03
  35   1    -0.01  -0.03  -0.00     0.03   0.02  -0.12     0.00   0.01   0.08
  36   1    -0.04  -0.03  -0.01    -0.06  -0.04  -0.07     0.09   0.03   0.09
  37   1    -0.04  -0.04  -0.01     0.01   0.01  -0.10    -0.03  -0.02   0.14
  38   1    -0.06  -0.00  -0.01    -0.03  -0.00   0.05     0.01   0.06  -0.09
  39   1    -0.06  -0.01  -0.01     0.02   0.06   0.04    -0.13   0.02  -0.04
  40   1    -0.08  -0.04  -0.00    -0.02   0.01   0.01    -0.09  -0.03   0.13
  41   1    -0.07  -0.03  -0.00    -0.07  -0.06   0.03     0.07   0.03   0.07
  42   1    -0.09  -0.01  -0.01    -0.06  -0.02   0.15    -0.02   0.08  -0.16
  43   1    -0.10  -0.01  -0.01    -0.01   0.05   0.14    -0.20   0.02  -0.11
  44   1    -0.10  -0.03  -0.00    -0.06  -0.01   0.15    -0.08   0.02  -0.03
                      4                      5                      6
                        a                      a                      a 
 Frequencies --    52.6138                60.9902                64.1593
 Red. masses --     7.5873                 5.3401                 7.8837
 Frc consts  --     0.0000                 0.0000                 0.0000
 IR Inten    --     0.0238                 0.0028                 0.0098
 Raman Activ --     0.0000                 0.0000                 0.0000
 Depolar     --     0.0000                 0.0000                 0.0000
 Atom AN      X      Y      Z        X      Y      Z        X      Y      Z
   1   6     0.10   0.22  -0.27     0.01   0.02  -0.08     0.01  -0.10   0.19
   2   6     0.11   0.07   0.17     0.08  -0.05   0.26     0.00  -0.10   0.18
   3   6    -0.02   0.16  -0.07    -0.03   0.06  -0.27    -0.11   0.01  -0.34
   4   6    -0.03   0.07   0.15     0.02   0.01  -0.03    -0.11  -0.02  -0.24
   5   6    -0.07   0.11   0.07     0.02   0.01  -0.06    -0.11  -0.05  -0.08
   6   6    -0.13   0.07   0.03     0.02   0.01  -0.06     0.07   0.04   0.03
   7   6    -0.04   0.01  -0.05     0.01   0.02  -0.04     0.04   0.02   0.26
   8   6    -0.04  -0.04  -0.08    -0.02   0.03   0.01     0.03  -0.08   0.23
   9   6    -0.13  -0.14  -0.02     0.00   0.03   0.03     0.08   0.07   0.02
  10   6    -0.14  -0.12  -0.00    -0.04  -0.02   0.10     0.16   0.05  -0.12
  11   6    -0.06  -0.08   0.00    -0.05  -0.02   0.08     0.07   0.03  -0.18
  12   6    -0.04  -0.12  -0.16     0.07  -0.05   0.31    -0.02   0.08  -0.21
  13   6     0.20  -0.08   0.20    -0.12   0.02  -0.28     0.01  -0.01   0.14
  14   6     0.27  -0.14   0.03     0.03  -0.03   0.04    -0.12   0.06   0.09
  15   1    -0.10   0.09  -0.13    -0.15  -0.02  -0.10    -0.09  -0.09   0.00
  16   1     0.06   0.04  -0.02     0.03  -0.02   0.10     0.03  -0.05   0.17
  17   1     0.13   0.09  -0.18     0.12   0.06  -0.14     0.07   0.05  -0.01
  18   1    -0.06  -0.00   0.15    -0.09  -0.07   0.19    -0.06  -0.10   0.11
  19   1     0.15  -0.01   0.10     0.17   0.00   0.15     0.09   0.02   0.11
  20   1    -0.09   0.05  -0.06    -0.14  -0.01  -0.15    -0.13  -0.03  -0.15
  21   1     0.06   0.08  -0.09     0.09   0.07  -0.18     0.04   0.07  -0.17
  22   1    -0.05   0.01   0.09    -0.04   0.01   0.04    -0.03   0.02  -0.06
  23   1     0.05  -0.00   0.07     0.06  -0.02   0.01    -0.03  -0.03  -0.08
  24   1    -0.02   0.03   0.02     0.01   0.00  -0.02    -0.04  -0.02  -0.03
  25   1    -0.01   0.05   0.02     0.01   0.00  -0.02    -0.05  -0.03   0.00
  26   1    -0.06   0.01   0.00     0.01   0.00  -0.01     0.05   0.02   0.01
  27   1    -0.04   0.03   0.02     0.01  -0.00  -0.02     0.04   0.02  -0.02
  28   1    -0.02  -0.01  -0.02     0.01   0.00  -0.01     0.02   0.05   0.10
  29   1     0.01   0.02  -0.02    -0.00   0.01  -0.02     0.00  -0.03   0.11
  30   1     0.01  -0.03  -0.05    -0.01   0.01   0.01    -0.00  -0.02   0.12
  31   1    -0.01   0.01  -0.02    -0.01   0.01  -0.00     0.00  -0.09   0.05
  32   1    -0.05  -0.03   0.02    -0.00   0.01  -0.01     0.04   0.01  -0.02
  33   1    -0.04  -0.07  -0.01     0.02   0.01   0.01    -0.00   0.07   0.01
  34   1    -0.04  -0.04  -0.00    -0.03  -0.01   0.02     0.07   0.02  -0.03
  35   1    -0.05  -0.03   0.01    -0.01  -0.01   0.04     0.05   0.01  -0.05
  36   1     0.02  -0.00   0.01    -0.07  -0.03   0.01     0.02   0.02  -0.05
  37   1    -0.03  -0.02   0.03     0.01   0.02  -0.02     0.02  -0.01  -0.05
  38   1     0.04  -0.06  -0.13    -0.07  -0.00   0.22     0.03   0.02  -0.12
  39   1    -0.11  -0.02  -0.07     0.18  -0.05   0.13    -0.08   0.06  -0.08
  40   1    -0.00   0.01   0.15     0.07   0.00  -0.23    -0.04  -0.00   0.11
  41   1     0.16  -0.04   0.09    -0.21   0.04  -0.13     0.08  -0.04   0.06
  42   1     0.14  -0.08  -0.08    -0.10  -0.00   0.16     0.02   0.01  -0.05
  43   1    -0.02  -0.03  -0.02     0.19  -0.05   0.06    -0.12   0.06   0.01
  44   1     0.13  -0.03   0.09    -0.03   0.01  -0.12    -0.03  -0.01   0.11
                      7                      8                      9
                        a                      a                      a 
 Frequencies --    89.5003               105.5730               109.6122
 Red. masses --     8.3494                 7.0948                 8.2205
 Frc consts  --     0.0000                 0.0000                 0.0000
 IR Inten    --     0.0104                 0.0092                 0.0214
 Raman Activ --     0.0000                 0.0000                 0.0000
 Depolar     --     0.0000                 0.0000                 0.0000
 Atom AN      X      Y      Z        X      Y      Z        X      Y      Z
   1   6     0.09   0.16  -0.24     0.06   0.09  -0.12     0.09   0.03   0.15
   2   6     0.03  -0.02   0.11    -0.00  -0.03   0.07    -0.03   0.03  -0.13
   3   6    -0.07   0.03   0.22    -0.06  -0.00   0.20    -0.10   0.07  -0.18
   4   6    -0.18   0.01   0.03    -0.14  -0.01   0.03    -0.06   0.00   0.07
   5   6    -0.25   0.06  -0.03    -0.17   0.01   0.01    -0.01  -0.03   0.11
   6   6     0.02  -0.16  -0.04    -0.03  -0.08   0.01    -0.15   0.07   0.12
   7   6     0.03  -0.17  -0.05    -0.01  -0.09   0.02    -0.08   0.02   0.08
   8   6    -0.00  -0.14   0.02     0.00  -0.09   0.00     0.00  -0.05  -0.10
   9   6     0.04  -0.15   0.07     0.33   0.29  -0.32     0.11   0.13  -0.34
  10   6     0.21   0.10  -0.12     0.01  -0.05   0.10    -0.02   0.00  -0.15
  11   6     0.18   0.04  -0.04     0.07  -0.02   0.11    -0.00  -0.07   0.04
  12   6     0.18   0.08   0.20    -0.04   0.00  -0.16     0.13  -0.10   0.37
  13   6     0.01  -0.00   0.09    -0.05  -0.02  -0.12     0.11  -0.06   0.22
  14   6    -0.26   0.13  -0.15     0.03  -0.03   0.17     0.00  -0.06  -0.26
  15   1    -0.04   0.11  -0.09    -0.01   0.07  -0.04     0.08  -0.01   0.06
  16   1     0.06   0.03  -0.08     0.04   0.02  -0.06     0.04  -0.00   0.04
  17   1     0.07   0.04  -0.12     0.03   0.02  -0.05    -0.01   0.04   0.09
  18   1    -0.02   0.01   0.07    -0.01   0.01   0.03     0.02  -0.03  -0.07
  19   1     0.06  -0.07   0.04     0.01  -0.05   0.02    -0.05   0.03  -0.05
  20   1     0.02   0.01   0.08     0.02  -0.00   0.08    -0.08   0.04  -0.07
  21   1    -0.05   0.03   0.10    -0.05   0.01   0.09     0.01   0.02  -0.09
  22   1    -0.03  -0.03  -0.02    -0.02  -0.02  -0.02    -0.05   0.03   0.06
  23   1    -0.08   0.02   0.00    -0.07   0.01  -0.00     0.02  -0.03   0.03
  24   1    -0.11   0.04  -0.08    -0.06   0.02  -0.03     0.02  -0.02   0.07
  25   1    -0.11   0.06   0.05    -0.07   0.02   0.03     0.02  -0.03  -0.00
  26   1     0.03  -0.08   0.05    -0.00  -0.04   0.03    -0.07   0.03  -0.00
  27   1     0.04  -0.06  -0.07     0.01  -0.02  -0.03    -0.06   0.04   0.07
  28   1     0.03  -0.07  -0.02    -0.01  -0.02   0.01    -0.06   0.03   0.02
  29   1     0.01  -0.04  -0.04    -0.00  -0.03   0.02     0.00  -0.00   0.06
  30   1    -0.00  -0.04   0.01    -0.05   0.02   0.11    -0.02  -0.00   0.01
  31   1    -0.01  -0.04   0.00    -0.01  -0.15  -0.03     0.02  -0.08  -0.04
  32   1     0.04  -0.06   0.09     0.10   0.07  -0.31     0.04   0.03  -0.20
  33   1    -0.05  -0.08  -0.00     0.22   0.25  -0.03     0.08   0.12  -0.07
  34   1     0.12   0.08  -0.01    -0.12  -0.08  -0.01    -0.06   0.01  -0.05
  35   1     0.04   0.04  -0.12     0.04  -0.03   0.17     0.01  -0.01  -0.02
  36   1     0.02  -0.03  -0.02     0.09   0.02   0.05    -0.03  -0.08  -0.00
  37   1     0.07   0.03  -0.04    -0.01  -0.04   0.09     0.01   0.03  -0.01
  38   1     0.02   0.02   0.11     0.01   0.03  -0.09    -0.01  -0.06   0.18
  39   1     0.11   0.04   0.07    -0.06  -0.02  -0.06     0.12  -0.01   0.13
  40   1    -0.01  -0.07   0.04     0.01   0.03  -0.07     0.00  -0.08   0.10
  41   1     0.03   0.03   0.04    -0.06  -0.04  -0.05     0.08   0.05   0.09
  42   1    -0.05   0.11  -0.07    -0.03  -0.04   0.10     0.04   0.04  -0.14
  43   1    -0.12   0.02  -0.06     0.07   0.02   0.07    -0.07  -0.08  -0.11
  44   1    -0.11   0.01  -0.05     0.00  -0.01   0.04     0.01  -0.00  -0.09
                     10                     11                     12
                        a                      a                      a 
 Frequencies --   127.7999               172.7374               192.8639
 Red. masses --     8.0009                 8.4215                 7.0850
 Frc consts  --     0.0000                 0.0000                 0.0000
 IR Inten    --     0.0009                 0.1794                 0.0612
 Raman Activ --     0.0000                 0.0000                 0.0000
 Depolar     --     0.0000                 0.0000                 0.0000
 Atom AN      X      Y      Z        X      Y      Z        X      Y      Z
   1   6     0.21   0.14   0.15    -0.13  -0.12  -0.00    -0.13  -0.05   0.03
   2   6    -0.07   0.05  -0.23     0.08   0.03   0.04     0.09   0.15  -0.04
   3   6    -0.22   0.13  -0.28     0.16  -0.01  -0.01     0.21   0.08  -0.07
   4   6    -0.12   0.02   0.24     0.08  -0.02  -0.12     0.18  -0.04   0.20
   5   6    -0.01  -0.03   0.14    -0.06   0.03   0.03    -0.04   0.12  -0.07
   6   6    -0.03  -0.16   0.07    -0.27   0.28   0.08    -0.04  -0.04  -0.15
   7   6     0.01  -0.16  -0.12    -0.04   0.08   0.08     0.01  -0.09  -0.13
   8   6     0.02  -0.07  -0.08     0.00  -0.19  -0.12    -0.22  -0.17   0.22
   9   6     0.03  -0.15   0.07    -0.09  -0.24  -0.15    -0.00   0.06   0.06
  10   6     0.07   0.00   0.08    -0.10  -0.07  -0.02    -0.09  -0.12   0.13
  11   6     0.16   0.04   0.11     0.27   0.06   0.20    -0.04   0.08  -0.24
  12   6     0.05   0.08  -0.16     0.24   0.05  -0.07     0.17  -0.00  -0.02
  13   6    -0.04   0.02  -0.14     0.09  -0.04  -0.08     0.10  -0.05   0.02
  14   6    -0.10   0.08   0.13    -0.18   0.14   0.09    -0.13   0.08   0.04
  15   1     0.15   0.04   0.08    -0.06  -0.07  -0.02     0.03  -0.03   0.04
  16   1     0.11   0.02   0.01    -0.08  -0.01   0.04    -0.11   0.03  -0.04
  17   1    -0.00   0.09   0.13    -0.02  -0.05  -0.03    -0.09  -0.10   0.05
  18   1     0.02  -0.05  -0.12     0.01   0.03   0.03     0.03   0.07  -0.02
  19   1    -0.07   0.04  -0.09     0.03   0.03   0.02     0.01   0.08  -0.01
  20   1    -0.16   0.09  -0.12     0.07  -0.02   0.00     0.00   0.05  -0.04
  21   1     0.01   0.03  -0.17     0.03   0.00   0.02     0.10   0.01  -0.07
  22   1    -0.12   0.04   0.16     0.05  -0.02  -0.06    -0.03  -0.06   0.13
  23   1     0.07  -0.04   0.11    -0.01  -0.02  -0.06     0.16  -0.03   0.11
  24   1     0.02   0.01   0.04    -0.03  -0.04   0.06    -0.05   0.04  -0.07
  25   1     0.01  -0.02   0.03     0.00   0.01  -0.02    -0.01   0.10   0.00
  26   1    -0.02  -0.07   0.04    -0.15   0.10  -0.05    -0.01  -0.03  -0.02
  27   1    -0.01  -0.06   0.02    -0.10   0.15   0.10    -0.00  -0.01  -0.06
  28   1     0.00  -0.10  -0.06    -0.03   0.04   0.03     0.09  -0.07  -0.03
  29   1     0.01  -0.02  -0.07     0.05   0.03   0.07    -0.01   0.01  -0.10
  30   1     0.00  -0.02  -0.06     0.03  -0.08  -0.04    -0.08  -0.04   0.18
  31   1     0.01   0.02  -0.01     0.02  -0.06  -0.03    -0.15  -0.13   0.03
  32   1     0.01  -0.04   0.07    -0.03  -0.07  -0.03     0.02   0.00  -0.10
  33   1    -0.00  -0.09   0.01    -0.02  -0.08  -0.04     0.05   0.11   0.05
  34   1     0.03   0.00   0.02    -0.06  -0.02  -0.01    -0.06  -0.14   0.01
  35   1    -0.00   0.02   0.01    -0.08   0.02   0.01    -0.04  -0.02   0.15
  36   1     0.11   0.04   0.05     0.19   0.03   0.08    -0.13   0.06  -0.08
  37   1     0.02  -0.01   0.09     0.02   0.04   0.17     0.04   0.05  -0.17
  38   1     0.04   0.06  -0.09     0.09   0.05  -0.05     0.02  -0.04   0.05
  39   1    -0.04  -0.00  -0.06     0.03  -0.01  -0.03     0.10   0.03   0.01
  40   1     0.01   0.01  -0.07     0.04  -0.05  -0.04     0.02  -0.04   0.02
  41   1    -0.05  -0.03  -0.05     0.00  -0.05  -0.03     0.04  -0.04   0.01
  42   1    -0.07   0.03   0.09    -0.09   0.10   0.08     0.01   0.03  -0.05
  43   1     0.03   0.06   0.06     0.00   0.07   0.05    -0.12   0.09  -0.00
  44   1    -0.07   0.00   0.02    -0.14  -0.01  -0.01    -0.06  -0.02   0.10
                     13                     14                     15
                        a                      a                      a 
 Frequencies --   204.3988               225.9840               232.9611
 Red. masses --     7.1459                 6.6991                 2.7503
 Frc consts  --     0.0000                 0.0000                 0.0000
 IR Inten    --     0.0364                 0.2529                 0.0201
 Raman Activ --     0.0000                 0.0000                 0.0000
 Depolar     --     0.0000                 0.0000                 0.0000
 Atom AN      X      Y      Z        X      Y      Z        X      Y      Z
   1   6    -0.18  -0.14   0.02    -0.06  -0.11   0.00     0.02  -0.00  -0.05
   2   6     0.13   0.14  -0.05     0.05   0.01  -0.08     0.01  -0.10   0.22
   3   6     0.25   0.09  -0.12     0.06   0.01  -0.06    -0.08  -0.02  -0.08
   4   6     0.11  -0.09   0.10    -0.05  -0.07  -0.05    -0.04  -0.01  -0.02
   5   6    -0.31   0.15   0.03    -0.29   0.05   0.14    -0.03   0.00  -0.08
   6   6     0.00  -0.07   0.03     0.05  -0.09   0.18     0.07   0.01  -0.04
   7   6    -0.02  -0.06   0.06    -0.07   0.04   0.04    -0.04   0.08   0.10
   8   6     0.02  -0.04  -0.01     0.19   0.34  -0.23     0.07   0.12  -0.06
   9   6     0.05  -0.00  -0.05     0.05   0.09   0.05    -0.03   0.02  -0.01
  10   6     0.15   0.15  -0.15    -0.05  -0.10   0.15    -0.05  -0.04   0.02
  11   6     0.00  -0.08   0.17     0.00   0.02  -0.09     0.02   0.01  -0.02
  12   6    -0.22   0.01   0.02     0.16  -0.06  -0.00     0.07  -0.03  -0.04
  13   6    -0.12   0.07   0.02     0.07  -0.10  -0.09     0.07  -0.06   0.03
  14   6     0.15  -0.10  -0.06    -0.08  -0.00   0.04    -0.04   0.00   0.00
  15   1     0.00  -0.08   0.02    -0.07  -0.10  -0.04     0.33   0.28   0.19
  16   1    -0.15   0.02  -0.02    -0.03  -0.03   0.09    -0.08   0.08  -0.50
  17   1    -0.09  -0.13   0.03     0.02   0.01  -0.03    -0.23  -0.34   0.19
  18   1     0.04   0.07  -0.01     0.02   0.01  -0.03    -0.05  -0.05   0.12
  19   1     0.03   0.08  -0.01    -0.00   0.02  -0.02     0.08  -0.04   0.10
  20   1     0.02   0.04  -0.06     0.02   0.01  -0.01    -0.10  -0.03  -0.07
  21   1     0.11   0.03  -0.07     0.01   0.01  -0.01     0.04   0.04  -0.08
  22   1    -0.02  -0.08   0.07     0.01  -0.03  -0.04    -0.03  -0.01   0.01
  23   1     0.10  -0.08   0.05    -0.04  -0.06  -0.04     0.01   0.00   0.01
  24   1    -0.20   0.03  -0.11    -0.18   0.00  -0.06    -0.02   0.01  -0.04
  25   1    -0.14   0.16   0.12    -0.14   0.08   0.14    -0.02   0.01  -0.01
  26   1     0.05  -0.05   0.08     0.06  -0.05   0.12     0.05   0.02   0.00
  27   1     0.04  -0.05  -0.07     0.04  -0.07  -0.03     0.03  -0.01  -0.04
  28   1    -0.02  -0.00   0.02    -0.10   0.01  -0.01    -0.05   0.08   0.04
  29   1    -0.01  -0.03   0.03    -0.02  -0.01   0.03    -0.03  -0.02   0.08
  30   1    -0.00  -0.00  -0.00     0.05   0.10  -0.22     0.03   0.03  -0.07
  31   1     0.02  -0.03  -0.00     0.14   0.21  -0.02     0.06   0.07  -0.00
  32   1     0.04  -0.01   0.03    -0.03   0.06   0.05    -0.03   0.02   0.02
  33   1    -0.03  -0.02  -0.03     0.05  -0.04   0.01    -0.01  -0.02  -0.01
  34   1     0.08   0.15  -0.02    -0.05  -0.11   0.02    -0.03  -0.03  -0.00
  35   1     0.06   0.02  -0.16    -0.01  -0.03   0.13    -0.02  -0.01   0.03
  36   1     0.09  -0.06   0.06    -0.07   0.04  -0.03     0.00   0.01  -0.00
  37   1    -0.04  -0.06   0.13     0.03   0.03  -0.08     0.01   0.02  -0.00
  38   1    -0.03   0.03  -0.04     0.01  -0.03   0.05     0.03  -0.01  -0.02
  39   1    -0.11  -0.01  -0.01     0.10  -0.02   0.01     0.01  -0.00  -0.01
  40   1    -0.03   0.05   0.00     0.03  -0.05  -0.04     0.01  -0.03   0.03
  41   1    -0.04   0.05   0.01     0.00  -0.05  -0.03     0.04  -0.02   0.01
  42   1    -0.01  -0.04   0.05     0.07  -0.06  -0.12    -0.05   0.06   0.06
  43   1     0.13  -0.12  -0.00    -0.18   0.13  -0.02     0.05  -0.04   0.01
  44   1     0.07   0.03  -0.12     0.01  -0.05   0.21    -0.06  -0.01  -0.08
                     16                     17                     18
                        a                      a                      a 
 Frequencies --   237.9299               255.1843               277.5790
 Red. masses --     2.8885                 6.9722                 8.8376
 Frc consts  --     0.0000                 0.0000                 0.0000
 IR Inten    --     0.0411                 0.3775                 0.1664
 Raman Activ --     0.0000                 0.0000                 0.0000
 Depolar     --     0.0000                 0.0000                 0.0000
 Atom AN      X      Y      Z        X      Y      Z        X      Y      Z
   1   6     0.00   0.01  -0.01    -0.02  -0.09  -0.02     0.06  -0.12  -0.03
   2   6     0.00  -0.02   0.07     0.06  -0.05   0.06    -0.07  -0.20  -0.07
   3   6    -0.01  -0.00  -0.02     0.02  -0.00  -0.07    -0.13  -0.15   0.08
   4   6     0.00   0.01  -0.01    -0.06  -0.00  -0.18    -0.02  -0.09   0.25
   5   6     0.04  -0.01  -0.03    -0.10  -0.03   0.22    -0.11   0.10  -0.22
   6   6    -0.05   0.06  -0.02    -0.28   0.15   0.24    -0.21   0.29  -0.20
   7   6     0.03  -0.01  -0.00     0.17  -0.09  -0.32    -0.03   0.17  -0.03
   8   6    -0.02  -0.12   0.02     0.01   0.03   0.00    -0.02   0.20   0.06
   9   6     0.01  -0.07  -0.03     0.16   0.07   0.15     0.09   0.17   0.18
  10   6     0.06   0.07  -0.06     0.18   0.02   0.10     0.21   0.09   0.01
  11   6     0.03  -0.03   0.15    -0.03  -0.01  -0.11     0.11  -0.05   0.04
  12   6    -0.06   0.02   0.12    -0.09   0.03  -0.01     0.10  -0.08  -0.05
  13   6    -0.14   0.08  -0.22    -0.05   0.03   0.06     0.03  -0.17  -0.03
  14   6     0.07  -0.01   0.02     0.04  -0.03  -0.02    -0.02  -0.16  -0.00
  15   1     0.09   0.08   0.06     0.06   0.02   0.03    -0.02  -0.05  -0.03
  16   1    -0.02   0.03  -0.14    -0.05   0.01  -0.10     0.06  -0.06   0.04
  17   1    -0.07  -0.09   0.05    -0.05  -0.12   0.03     0.04   0.02  -0.03
  18   1    -0.01  -0.01   0.04    -0.01  -0.02   0.04    -0.00  -0.07  -0.04
  19   1     0.02  -0.01   0.03     0.05  -0.01   0.03    -0.04  -0.08  -0.04
  20   1    -0.02  -0.01  -0.02     0.01  -0.02  -0.03    -0.05  -0.01   0.02
  21   1     0.01   0.01  -0.02     0.00   0.03  -0.02    -0.02  -0.07   0.00
  22   1    -0.00   0.01  -0.00     0.05   0.04  -0.11    -0.11  -0.10   0.16
  23   1     0.00   0.01  -0.00    -0.10  -0.04  -0.11     0.12   0.02   0.16
  24   1     0.03  -0.01   0.02    -0.03  -0.06   0.13    -0.04   0.01  -0.05
  25   1     0.03  -0.02  -0.03    -0.01  -0.05   0.03    -0.00   0.08  -0.09
  26   1    -0.04   0.02  -0.03    -0.21   0.01   0.00    -0.10   0.10  -0.11
  27   1    -0.02   0.05   0.02    -0.11   0.12   0.16    -0.06   0.15  -0.01
  28   1     0.02  -0.01   0.00     0.11  -0.24  -0.17     0.01   0.06   0.00
  29   1     0.02   0.01   0.00     0.12   0.13  -0.25    -0.00   0.05  -0.01
  30   1    -0.00  -0.04   0.04    -0.01   0.02   0.02    -0.02   0.07   0.00
  31   1    -0.02  -0.06  -0.00    -0.06   0.02  -0.01    -0.02   0.08   0.02
  32   1     0.02  -0.03   0.00     0.05   0.02   0.02     0.02   0.05   0.07
  33   1    -0.01  -0.02  -0.01     0.06   0.02   0.04     0.00   0.03   0.04
  34   1     0.03   0.08  -0.00     0.08  -0.01   0.03     0.11   0.07   0.02
  35   1     0.02   0.02  -0.08     0.07  -0.01   0.02     0.09   0.00  -0.06
  36   1     0.05  -0.03   0.05    -0.08   0.01  -0.04     0.06  -0.02   0.02
  37   1    -0.01  -0.02   0.08     0.02  -0.04  -0.10     0.02  -0.02   0.03
  38   1    -0.05   0.04   0.09    -0.03  -0.00  -0.00     0.04  -0.01  -0.03
  39   1     0.05  -0.03   0.05    -0.02   0.03   0.00     0.01  -0.03  -0.02
  40   1     0.01   0.05  -0.14    -0.02   0.02   0.03     0.01  -0.06  -0.01
  41   1    -0.13   0.04  -0.09     0.00   0.02   0.02     0.01  -0.06  -0.01
  42   1     0.24  -0.26  -0.31    -0.01  -0.00   0.02    -0.00  -0.04  -0.00
  43   1    -0.33   0.25  -0.06     0.05  -0.06  -0.00    -0.01  -0.04  -0.00
  44   1     0.21  -0.02   0.46     0.02   0.02  -0.06    -0.01  -0.05   0.01
                     19                     20                     21
                        a                      a                      a 
 Frequencies --   298.2655               343.3105               405.2529
 Red. masses --     8.8345                 8.1715                 8.5329
 Frc consts  --     0.0000                 0.0000                 0.0000
 IR Inten    --     0.0477                 0.1589                 0.0226
 Raman Activ --     0.0000                 0.0000                 0.0000
 Depolar     --     0.0000                 0.0000                 0.0000
 Atom AN      X      Y      Z        X      Y      Z        X      Y      Z
   1   6     0.05  -0.12  -0.03     0.06  -0.16  -0.05    -0.01  -0.02  -0.00
   2   6    -0.05  -0.17  -0.05    -0.04  -0.21  -0.05     0.06   0.04  -0.00
   3   6    -0.11  -0.11   0.04    -0.12  -0.11  -0.01     0.01   0.06   0.02
   4   6    -0.01  -0.05   0.15     0.02   0.05   0.04    -0.07  -0.01   0.01
   5   6    -0.12   0.11  -0.10    -0.05   0.15   0.15    -0.00  -0.05  -0.04
   6   6     0.03   0.18  -0.03     0.27   0.07   0.18    -0.06  -0.02  -0.04
   7   6     0.24   0.02   0.08     0.28   0.16  -0.16    -0.00  -0.06   0.02
   8   6     0.28  -0.17  -0.11    -0.02   0.05   0.17     0.04   0.05   0.03
   9   6     0.08  -0.23  -0.10    -0.24   0.08  -0.13     0.06   0.06   0.04
  10   6    -0.06  -0.16   0.12    -0.24   0.04  -0.22     0.09  -0.04  -0.06
  11   6    -0.11   0.02  -0.13    -0.04   0.00   0.11    -0.27  -0.30   0.10
  12   6    -0.20   0.15   0.07     0.07  -0.07  -0.00    -0.12  -0.30   0.00
  13   6    -0.10   0.28   0.08     0.09  -0.05  -0.04     0.34   0.12  -0.12
  14   6     0.06   0.21  -0.01    -0.04   0.04   0.02    -0.03   0.45   0.06
  15   1     0.00  -0.04  -0.02     0.02  -0.04  -0.01    -0.01  -0.02  -0.00
  16   1     0.04  -0.05   0.01     0.03  -0.06  -0.01    -0.03   0.01   0.01
  17   1     0.02  -0.01  -0.01     0.02  -0.04  -0.01    -0.00  -0.02  -0.00
  18   1    -0.00  -0.06  -0.03    -0.01  -0.08  -0.02     0.02   0.02   0.00
  19   1    -0.03  -0.07  -0.02    -0.01  -0.08  -0.02     0.02   0.01  -0.00
  20   1    -0.05  -0.01   0.01    -0.04  -0.03  -0.01     0.00   0.03   0.01
  21   1    -0.02  -0.05  -0.01    -0.02  -0.04  -0.02    -0.00   0.03   0.01
  22   1    -0.07  -0.05   0.10     0.01   0.03   0.01    -0.03  -0.01   0.01
  23   1     0.07   0.01   0.10    -0.00   0.02   0.01    -0.01  -0.00   0.01
  24   1    -0.08   0.02  -0.06    -0.09   0.04  -0.04     0.03  -0.01   0.02
  25   1    -0.04   0.08   0.01    -0.08   0.08   0.13     0.02  -0.04  -0.04
  26   1    -0.03   0.05  -0.03     0.10  -0.02   0.12    -0.04   0.00  -0.04
  27   1     0.03   0.12  -0.00     0.10  -0.03  -0.02    -0.02   0.03   0.01
  28   1     0.05   0.03   0.03     0.16  -0.12  -0.09    -0.00  -0.01   0.01
  29   1     0.11   0.00   0.07     0.08   0.15  -0.19    -0.01  -0.02   0.00
  30   1     0.11  -0.07  -0.06     0.04  -0.02   0.15    -0.01   0.03  -0.01
  31   1     0.11  -0.04  -0.02    -0.09  -0.05   0.02     0.02   0.03   0.01
  32   1     0.00  -0.05  -0.04    -0.08   0.03  -0.05     0.02   0.02   0.01
  33   1     0.07  -0.08  -0.02    -0.10   0.07  -0.04     0.01   0.02   0.01
  34   1    -0.07  -0.12   0.01    -0.08   0.06  -0.06     0.06   0.09   0.01
  35   1    -0.04  -0.02   0.12    -0.07   0.01  -0.09     0.09  -0.07  -0.12
  36   1    -0.12   0.02  -0.05     0.08  -0.03   0.04    -0.06  -0.12   0.03
  37   1     0.01  -0.02  -0.12    -0.06   0.05   0.12    -0.08  -0.11   0.03
  38   1    -0.07   0.02   0.04     0.02  -0.02  -0.01    -0.02  -0.15  -0.02
  39   1    -0.03   0.07   0.03     0.01  -0.04  -0.01    -0.04  -0.16  -0.01
  40   1    -0.03   0.11   0.03     0.03  -0.02  -0.02     0.09   0.05  -0.02
  41   1    -0.02   0.11   0.03     0.02  -0.02  -0.02     0.09   0.05  -0.03
  42   1     0.02   0.05   0.00    -0.01   0.03   0.01    -0.02   0.24   0.04
  43   1     0.03   0.03  -0.00    -0.02   0.04   0.01    -0.02   0.24   0.03
  44   1     0.04   0.09  -0.02    -0.04  -0.02   0.02    -0.16   0.01   0.06
                     22                     23                     24
                        a                      a                      a 
 Frequencies --   405.7467               456.5877               494.7299
 Red. masses --     8.4570                 8.5436                 8.9624
 Frc consts  --     0.0000                 0.0000                 0.0000
 IR Inten    --     0.0623                 0.7945                 0.0871
 Raman Activ --     0.0000                 0.0000                 0.0000
 Depolar     --     0.0000                 0.0000                 0.0000
 Atom AN      X      Y      Z        X      Y      Z        X      Y      Z
   1   6    -0.01   0.44   0.09    -0.06   0.10   0.03    -0.01   0.03   0.01
   2   6    -0.38   0.04   0.08     0.09   0.17   0.02     0.02   0.04   0.01
   3   6     0.15  -0.29  -0.09     0.08   0.09   0.03     0.02   0.01   0.01
   4   6     0.34  -0.24  -0.10    -0.21  -0.23   0.04    -0.06  -0.07   0.01
   5   6    -0.10  -0.03  -0.01    -0.09  -0.29  -0.19    -0.03  -0.07  -0.05
   6   6    -0.04   0.03   0.05    -0.03  -0.04  -0.06     0.04   0.03   0.02
   7   6     0.03  -0.00  -0.01     0.26  -0.21   0.07     0.16  -0.07   0.05
   8   6     0.02   0.02   0.01     0.26   0.20   0.21     0.13  -0.16  -0.09
   9   6     0.00   0.02  -0.00    -0.15   0.12  -0.04     0.06  -0.06  -0.09
  10   6     0.00  -0.01  -0.02    -0.19  -0.07  -0.17    -0.08   0.45   0.19
  11   6    -0.03  -0.04   0.01     0.07   0.03   0.00    -0.38   0.31   0.11
  12   6    -0.01  -0.03   0.00     0.04   0.07   0.02     0.06  -0.08  -0.09
  13   6     0.04   0.01  -0.01    -0.05   0.01   0.03     0.12  -0.19  -0.07
  14   6    -0.00   0.05   0.01     0.01  -0.03  -0.01    -0.06  -0.16   0.01
  15   1     0.00   0.24   0.05    -0.02   0.01   0.00    -0.00   0.00   0.00
  16   1     0.17   0.04  -0.02    -0.05   0.05   0.02    -0.01   0.01   0.00
  17   1    -0.00   0.24   0.05    -0.02   0.01   0.00    -0.00   0.00   0.00
  18   1    -0.10   0.03   0.02     0.02   0.07   0.01     0.01   0.02   0.00
  19   1    -0.10   0.03   0.03     0.02   0.07   0.01     0.00   0.01   0.00
  20   1     0.04  -0.15  -0.05     0.02   0.06   0.02     0.00   0.02   0.01
  21   1     0.05  -0.15  -0.05     0.01   0.05   0.02     0.00   0.01   0.01
  22   1     0.09  -0.10  -0.03    -0.11  -0.13   0.05    -0.03  -0.04   0.02
  23   1     0.10  -0.09  -0.03     0.02  -0.06   0.05     0.01  -0.02   0.02
  24   1    -0.15  -0.07  -0.06     0.04  -0.07   0.01     0.00  -0.02  -0.00
  25   1    -0.06   0.09   0.07     0.00  -0.14  -0.10    -0.01  -0.04  -0.02
  26   1    -0.03   0.00   0.01    -0.11   0.01  -0.12    -0.02   0.02  -0.03
  27   1    -0.01   0.02   0.01     0.01   0.13   0.06     0.02   0.06   0.03
  28   1     0.02  -0.04  -0.02     0.13  -0.15  -0.00     0.04  -0.01   0.02
  29   1     0.02   0.02  -0.03     0.05   0.00  -0.09     0.08  -0.02   0.04
  30   1     0.00   0.01   0.00     0.06   0.06  -0.04     0.05  -0.06  -0.02
  31   1     0.00   0.00   0.00     0.13   0.11   0.08     0.06  -0.07  -0.03
  32   1    -0.01   0.01  -0.00    -0.11   0.08  -0.00     0.07  -0.05  -0.00
  33   1    -0.00   0.01  -0.00    -0.09   0.06  -0.01     0.05  -0.05  -0.03
  34   1     0.00   0.01  -0.00    -0.08  -0.05  -0.06    -0.01   0.26   0.08
  35   1     0.01  -0.01  -0.02    -0.07  -0.00   0.00    -0.01   0.11  -0.07
  36   1    -0.00  -0.02   0.00     0.10  -0.02   0.01    -0.23   0.15   0.02
  37   1    -0.01  -0.01   0.01    -0.02   0.05   0.08    -0.04   0.10  -0.09
  38   1    -0.00  -0.02  -0.00     0.01   0.04   0.01     0.02  -0.08  -0.04
  39   1    -0.00  -0.02  -0.00     0.02   0.03   0.01     0.00  -0.07  -0.03
  40   1     0.01   0.01  -0.00    -0.01   0.00   0.00     0.02  -0.08  -0.01
  41   1     0.01   0.01  -0.00    -0.02   0.00   0.01     0.04  -0.09  -0.02
  42   1    -0.00   0.03   0.00     0.01  -0.03  -0.01    -0.02  -0.02   0.01
  43   1    -0.00   0.03   0.00     0.00  -0.03  -0.00    -0.01  -0.02   0.01
  44   1    -0.02   0.00   0.01     0.03   0.01  -0.01    -0.05  -0.07   0.01
                     25                     26                     27
                        a                      a                      a 
 Frequencies --   536.8697               750.4720               767.8695
 Red. masses --     8.6096                 2.4671                 2.1391
 Frc consts  --     0.0000                 0.0000                 0.0000
 IR Inten    --     0.6549                11.5148                19.9283
 Raman Activ --     0.0000                 0.0000                 0.0000
 Depolar     --     0.0000                 0.0000                 0.0000
 Atom AN      X      Y      Z        X      Y      Z        X      Y      Z
   1   6    -0.05   0.09   0.03     0.00  -0.01  -0.00     0.00  -0.01  -0.01
   2   6     0.06   0.12   0.02    -0.02  -0.02  -0.00    -0.03  -0.00  -0.06
   3   6     0.05   0.04   0.04     0.03  -0.01  -0.04     0.00   0.01  -0.10
   4   6    -0.24  -0.29   0.04     0.02   0.05  -0.07     0.01   0.05  -0.08
   5   6    -0.08  -0.31  -0.07    -0.06   0.10  -0.09    -0.03   0.06  -0.01
   6   6     0.21   0.14   0.15    -0.11   0.10   0.07    -0.05   0.01   0.04
   7   6    -0.01   0.47  -0.15    -0.13   0.01   0.14    -0.01  -0.05   0.03
   8   6    -0.14  -0.04  -0.15    -0.05  -0.09   0.11     0.02  -0.02  -0.02
   9   6     0.05  -0.09  -0.00    -0.03  -0.10  -0.02     0.08   0.05  -0.01
  10   6     0.09  -0.04   0.06     0.00  -0.02   0.02     0.03   0.10  -0.03
  11   6     0.05  -0.05  -0.02     0.02  -0.00   0.02    -0.08   0.05  -0.08
  12   6    -0.02  -0.00   0.00     0.02   0.01   0.02    -0.09  -0.01  -0.11
  13   6    -0.01   0.02   0.00    -0.01   0.01   0.01     0.00  -0.01  -0.09
  14   6     0.01   0.02  -0.00    -0.00   0.00  -0.00    -0.00  -0.01  -0.01
  15   1    -0.02   0.01   0.00     0.01   0.00   0.00     0.05  -0.04   0.01
  16   1    -0.03   0.04   0.02     0.01  -0.01  -0.01     0.01  -0.01   0.01
  17   1    -0.01   0.01   0.00    -0.00   0.01   0.01    -0.04   0.03   0.05
  18   1     0.02   0.06   0.01    -0.03  -0.02   0.02    -0.13  -0.07   0.11
  19   1     0.01   0.05   0.01     0.03   0.01   0.02     0.16   0.02   0.07
  20   1     0.01   0.06   0.02     0.10  -0.04   0.02     0.24  -0.03   0.08
  21   1     0.01   0.04   0.02    -0.06  -0.02   0.07    -0.17  -0.05   0.16
  22   1    -0.13  -0.15   0.06    -0.09  -0.04   0.06    -0.13  -0.00   0.11
  23   1     0.02  -0.08   0.06     0.12  -0.01   0.04     0.17  -0.04   0.06
  24   1     0.02  -0.09   0.03     0.11  -0.02   0.18     0.05  -0.01   0.09
  25   1    -0.04  -0.19  -0.02     0.12  -0.07  -0.23     0.03  -0.05  -0.08
  26   1     0.20   0.09   0.09     0.22  -0.02   0.26     0.04  -0.03   0.09
  27   1     0.06  -0.08  -0.04     0.07  -0.16  -0.26     0.02  -0.04  -0.06
  28   1    -0.03   0.08  -0.07     0.12  -0.24  -0.03    -0.00  -0.03  -0.00
  29   1     0.05   0.17  -0.04     0.04   0.20  -0.17     0.02   0.01   0.00
  30   1     0.02  -0.06   0.12     0.03  -0.05  -0.30    -0.03   0.02   0.06
  31   1    -0.18  -0.10  -0.09     0.20   0.21   0.13    -0.00  -0.08  -0.02
  32   1     0.04  -0.05   0.02     0.06  -0.08  -0.23     0.05  -0.00   0.20
  33   1     0.04  -0.06  -0.00     0.09   0.18   0.06    -0.10  -0.14  -0.06
  34   1     0.03  -0.02   0.02     0.06   0.06   0.03    -0.11  -0.12  -0.06
  35   1     0.03  -0.01   0.02    -0.02   0.01  -0.08     0.04   0.01   0.18
  36   1    -0.01  -0.01  -0.01    -0.05   0.00  -0.00     0.22   0.04   0.03
  37   1     0.02  -0.03  -0.03     0.03   0.01  -0.05    -0.14  -0.08   0.19
  38   1    -0.00   0.00  -0.00     0.04   0.01  -0.05    -0.20  -0.07   0.26
  39   1    -0.01   0.00   0.00    -0.06   0.00  -0.01     0.31  -0.00   0.06
  40   1    -0.00   0.01   0.00     0.02  -0.00  -0.03    -0.13   0.01   0.19
  41   1    -0.00   0.01   0.00    -0.04   0.01  -0.01     0.24  -0.04   0.04
  42   1     0.00   0.01  -0.00     0.00   0.00  -0.01    -0.04  -0.05   0.05
  43   1     0.00   0.01  -0.00    -0.01  -0.01  -0.00     0.06   0.06   0.03
  44   1     0.00   0.01  -0.00     0.00   0.01  -0.00    -0.01  -0.02   0.03
                     28                     29                     30
                        a                      a                      a 
 Frequencies --   773.8681               785.0419               818.4894
 Red. masses --     1.9369                 2.3901                 3.1837
 Frc consts  --     0.0000                 0.0000                 0.0000
 IR Inten    --     2.9215                 4.7380                 0.6620
 Raman Activ --     0.0000                 0.0000                 0.0000
 Depolar     --     0.0000                 0.0000                 0.0000
 Atom AN      X      Y      Z        X      Y      Z        X      Y      Z
   1   6    -0.00   0.01   0.01     0.00  -0.01   0.01     0.01  -0.02   0.02
   2   6     0.03  -0.02   0.11    -0.01  -0.03   0.06    -0.01  -0.04   0.09
   3   6     0.04  -0.04   0.14     0.06  -0.03   0.03     0.07  -0.02  -0.05
   4   6    -0.01  -0.05   0.08     0.00   0.02  -0.01    -0.02   0.06  -0.10
   5   6    -0.02  -0.00  -0.02    -0.08   0.09  -0.02    -0.09   0.11   0.04
   6   6    -0.04   0.04  -0.04    -0.13   0.03  -0.01    -0.06  -0.05   0.01
   7   6    -0.02   0.03   0.03    -0.01  -0.03   0.05     0.05  -0.03  -0.05
   8   6    -0.01  -0.05   0.02     0.07   0.02   0.01     0.11   0.11  -0.01
   9   6     0.02  -0.03   0.02     0.09   0.09  -0.10    -0.04   0.04  -0.05
  10   6     0.01   0.03   0.01     0.05   0.12  -0.08    -0.06  -0.13   0.03
  11   6    -0.05   0.03  -0.05    -0.02   0.03  -0.01     0.09  -0.07   0.15
  12   6    -0.05   0.01  -0.10    -0.03  -0.05   0.09     0.08   0.02   0.03
  13   6    -0.02   0.00  -0.08     0.07  -0.03   0.08    -0.10   0.04  -0.13
  14   6    -0.00  -0.01  -0.01     0.01  -0.01   0.01    -0.02   0.03  -0.04
  15   1    -0.10   0.08  -0.02    -0.05   0.06  -0.01    -0.08   0.10  -0.01
  16   1    -0.01   0.01  -0.04     0.01  -0.01  -0.03     0.02  -0.01  -0.05
  17   1     0.07  -0.06  -0.09     0.04  -0.03  -0.04     0.06  -0.05  -0.07
  18   1     0.22   0.10  -0.19     0.09   0.04  -0.09     0.11  -0.00  -0.10
  19   1    -0.28  -0.03  -0.12    -0.13  -0.01  -0.05    -0.15   0.03  -0.04
  20   1    -0.33  -0.00  -0.13    -0.08  -0.04  -0.05     0.06  -0.11  -0.02
  21   1     0.26   0.08  -0.23     0.09   0.02  -0.07    -0.02   0.04   0.03
  22   1     0.15  -0.04  -0.14     0.01  -0.04  -0.02    -0.11  -0.03   0.08
  23   1    -0.19   0.06  -0.07    -0.01   0.01  -0.01     0.13  -0.04   0.04
  24   1     0.03  -0.00   0.04     0.10  -0.00   0.17     0.09   0.02   0.17
  25   1     0.04   0.00  -0.06     0.09  -0.07  -0.17     0.04  -0.10  -0.12
  26   1     0.07   0.01   0.05     0.08  -0.06   0.16    -0.03  -0.10   0.10
  27   1     0.02  -0.04  -0.09     0.04  -0.07  -0.16     0.03  -0.02  -0.07
  28   1     0.04  -0.05  -0.00     0.03  -0.05   0.00    -0.06   0.09   0.01
  29   1     0.02   0.06  -0.04     0.02   0.03  -0.02    -0.02  -0.09   0.07
  30   1     0.01  -0.02  -0.08    -0.05   0.05   0.14     0.00   0.05   0.20
  31   1     0.06   0.05   0.03     0.01  -0.15  -0.03    -0.09  -0.13  -0.06
  32   1     0.04  -0.03  -0.04     0.05   0.01   0.34    -0.12   0.09   0.03
  33   1     0.02   0.03   0.02    -0.21  -0.24  -0.13     0.00  -0.06  -0.03
  34   1     0.01  -0.02  -0.00    -0.21  -0.16  -0.10     0.03   0.13   0.05
  35   1     0.00   0.01   0.02     0.05   0.02   0.28    -0.02  -0.04  -0.16
  36   1     0.15   0.04   0.02    -0.02  -0.06  -0.02    -0.25  -0.01  -0.01
  37   1    -0.09  -0.06   0.13     0.00   0.02  -0.02     0.15   0.06  -0.20
  38   1    -0.16  -0.03   0.20     0.09  -0.05  -0.14     0.06   0.17  -0.04
  39   1     0.25  -0.00   0.05    -0.18   0.01  -0.02    -0.05  -0.10  -0.02
  40   1    -0.13   0.00   0.17     0.15   0.01  -0.18    -0.18  -0.07   0.19
  41   1     0.21  -0.03   0.04    -0.21   0.02  -0.04     0.24   0.05   0.05
  42   1    -0.04  -0.06   0.05     0.04   0.10  -0.06    -0.08  -0.17   0.10
  43   1     0.06   0.06   0.03    -0.08  -0.06  -0.03     0.14   0.13   0.05
  44   1     0.00  -0.01   0.02    -0.03  -0.02  -0.03     0.06   0.02   0.07
                     31                     32                     33
                        a                      a                      a 
 Frequencies --   822.7885               831.9331               884.8929
 Red. masses --     3.1545                 3.9430                 4.6538
 Frc consts  --     0.0000                 0.0000                 0.0000
 IR Inten    --     1.0567                 0.5162                 0.7722
 Raman Activ --     0.0000                 0.0000                 0.0000
 Depolar     --     0.0000                 0.0000                 0.0000
 Atom AN      X      Y      Z        X      Y      Z        X      Y      Z
   1   6    -0.02   0.03  -0.06     0.01   0.01   0.01     0.02   0.02  -0.01
   2   6    -0.03   0.04  -0.20     0.04   0.02   0.02     0.03   0.03  -0.01
   3   6     0.04  -0.04   0.07    -0.11   0.05   0.02    -0.10   0.03   0.04
   4   6    -0.02  -0.12   0.21     0.07   0.03  -0.03     0.12   0.06  -0.02
   5   6    -0.04   0.02   0.06     0.14  -0.14  -0.14     0.07  -0.09  -0.16
   6   6    -0.11   0.01  -0.15     0.07   0.02   0.09    -0.11  -0.03   0.07
   7   6     0.01   0.07  -0.00    -0.14  -0.01   0.15    -0.18  -0.00   0.17
   8   6     0.08   0.03   0.06    -0.14  -0.04   0.04     0.11   0.12  -0.01
   9   6     0.00   0.00  -0.07    -0.00   0.00  -0.15     0.08  -0.01  -0.14
  10   6     0.00  -0.01  -0.00     0.11   0.12  -0.02    -0.07  -0.20   0.12
  11   6     0.04  -0.02   0.08     0.12  -0.04   0.09    -0.06  -0.05   0.05
  12   6     0.02  -0.00   0.03    -0.04  -0.06   0.09     0.11   0.06  -0.17
  13   6    -0.04   0.01  -0.07    -0.03  -0.00  -0.12    -0.05   0.03   0.08
  14   6    -0.01   0.01  -0.03    -0.01   0.01  -0.05     0.00   0.05   0.07
  15   1     0.18  -0.18   0.03    -0.02   0.00  -0.01     0.02  -0.04  -0.01
  16   1     0.02  -0.02   0.10    -0.04   0.03  -0.00    -0.05   0.03   0.02
  17   1    -0.15   0.16   0.17     0.02  -0.04  -0.03    -0.01  -0.02   0.00
  18   1    -0.24   0.02   0.21     0.04  -0.01  -0.03    -0.00  -0.00   0.00
  19   1     0.30  -0.06   0.08    -0.03   0.01  -0.01     0.02  -0.02  -0.00
  20   1    -0.11   0.15  -0.00    -0.02   0.02   0.01    -0.05   0.02   0.00
  21   1     0.10  -0.13  -0.10    -0.04   0.04   0.02    -0.01   0.01  -0.01
  22   1     0.23  -0.01  -0.18    -0.01   0.05   0.03     0.03   0.04  -0.00
  23   1    -0.31   0.01  -0.10     0.05   0.06   0.03     0.03   0.08   0.01
  24   1     0.05   0.01   0.08    -0.12  -0.03  -0.24    -0.06  -0.04  -0.12
  25   1     0.07   0.03  -0.09    -0.08   0.10   0.16    -0.01   0.07   0.02
  26   1     0.07  -0.02   0.05     0.03   0.13  -0.12     0.08   0.07   0.01
  27   1     0.01  -0.06  -0.15    -0.04   0.03   0.14    -0.04  -0.08  -0.01
  28   1     0.05   0.01   0.01     0.08  -0.23  -0.03     0.03  -0.25  -0.04
  29   1     0.00   0.04  -0.02    -0.01   0.16  -0.16    -0.00   0.17  -0.16
  30   1     0.02   0.01   0.06    -0.06   0.01  -0.13    -0.07   0.10   0.20
  31   1     0.03  -0.04   0.01     0.12   0.04   0.05     0.05  -0.23  -0.05
  32   1    -0.02   0.02   0.05     0.07  -0.05   0.12    -0.12   0.10   0.11
  33   1    -0.04  -0.05  -0.04    -0.15  -0.07  -0.09     0.08  -0.22  -0.07
  34   1    -0.04   0.02  -0.00    -0.16  -0.09  -0.06     0.08   0.19   0.09
  35   1     0.00  -0.01   0.00     0.04   0.04   0.21     0.03  -0.10  -0.24
  36   1    -0.13  -0.02  -0.01    -0.17  -0.08  -0.02    -0.04   0.14   0.03
  37   1     0.08   0.03  -0.10     0.13   0.01  -0.16    -0.00  -0.04  -0.01
  38   1     0.03   0.07  -0.03     0.04   0.08  -0.06    -0.05   0.02   0.08
  39   1    -0.04  -0.06  -0.01    -0.11  -0.12  -0.01     0.17   0.04  -0.00
  40   1    -0.08  -0.04   0.09    -0.11  -0.07   0.12     0.02   0.09  -0.03
  41   1     0.12   0.03   0.02     0.17   0.07   0.03    -0.07  -0.12  -0.01
  42   1    -0.04  -0.09   0.05    -0.07  -0.12   0.08     0.06   0.07  -0.07
  43   1     0.07   0.07   0.03     0.11   0.14   0.04    -0.09  -0.16  -0.03
  44   1     0.02   0.00   0.04     0.01  -0.02   0.07     0.05   0.08  -0.08
                     34                     35                     36
                        a                      a                      a 
 Frequencies --   905.2898               928.8987               938.6848
 Red. masses --     6.2489                 5.1887                 5.7048
 Frc consts  --     0.0000                 0.0000                 0.0000
 IR Inten    --     0.3840                 2.2011                 3.7268
 Raman Activ --     0.0000                 0.0000                 0.0000
 Depolar     --     0.0000                 0.0000                 0.0000
 Atom AN      X      Y      Z        X      Y      Z        X      Y      Z
   1   6     0.02   0.04   0.11    -0.05  -0.14  -0.01    -0.03  -0.10   0.03
   2   6     0.07   0.02   0.04    -0.12  -0.07   0.01    -0.06  -0.04  -0.00
   3   6    -0.13   0.01  -0.17     0.23   0.05  -0.05     0.11   0.05  -0.07
   4   6     0.00  -0.13   0.11    -0.16   0.01   0.05    -0.10  -0.04   0.08
   5   6     0.06  -0.09   0.22    -0.03   0.08   0.09     0.01   0.02   0.05
   6   6    -0.22  -0.09  -0.30     0.11  -0.04  -0.07     0.08   0.06  -0.04
   7   6    -0.03   0.26  -0.08    -0.00   0.05   0.01     0.01  -0.03   0.01
   8   6     0.21   0.01   0.20    -0.08   0.04   0.08    -0.10  -0.09  -0.03
   9   6     0.04  -0.09  -0.06    -0.12  -0.04  -0.19     0.09   0.07   0.04
  10   6     0.02   0.01  -0.01     0.10   0.09   0.12    -0.02  -0.04  -0.06
  11   6    -0.02   0.04   0.02     0.21  -0.10   0.11    -0.21  -0.07   0.03
  12   6    -0.03   0.01  -0.00    -0.12  -0.04  -0.15     0.34  -0.10  -0.09
  13   6     0.02  -0.01  -0.01    -0.01  -0.01   0.00    -0.20   0.06   0.08
  14   6     0.00  -0.02   0.00     0.07   0.01   0.10    -0.11   0.26   0.03
  15   1    -0.16   0.14  -0.02    -0.01   0.12   0.03    -0.06   0.14   0.02
  16   1    -0.09   0.07  -0.07     0.20  -0.15  -0.08     0.13  -0.10  -0.08
  17   1     0.12  -0.17  -0.13     0.01   0.10   0.00     0.04   0.03  -0.04
  18   1     0.07  -0.18  -0.07    -0.03   0.04   0.01    -0.02  -0.04  -0.00
  19   1    -0.05   0.17   0.02    -0.04   0.07   0.02    -0.02   0.11   0.03
  20   1     0.17   0.04   0.06     0.07   0.03  -0.00     0.08   0.09   0.02
  21   1    -0.19  -0.06   0.12     0.04   0.02   0.00    -0.01  -0.03   0.02
  22   1     0.08   0.17  -0.01    -0.03  -0.03  -0.01     0.03   0.01  -0.03
  23   1    -0.11  -0.16  -0.07    -0.05  -0.06  -0.01    -0.09  -0.04  -0.02
  24   1    -0.09  -0.05  -0.03     0.09   0.11   0.02     0.03   0.05  -0.01
  25   1     0.04   0.16   0.08    -0.02  -0.06   0.01    -0.00   0.00   0.02
  26   1     0.03  -0.01  -0.02    -0.07   0.00  -0.10     0.02   0.05  -0.04
  27   1    -0.10  -0.17  -0.11     0.00   0.07   0.07     0.02   0.04   0.01
  28   1     0.10   0.10   0.02     0.07   0.01   0.02     0.04  -0.00   0.01
  29   1    -0.04   0.06  -0.04    -0.09  -0.00  -0.05     0.03   0.00   0.01
  30   1     0.13  -0.05   0.04     0.01  -0.01  -0.06    -0.05  -0.00  -0.10
  31   1     0.09   0.00   0.06     0.04   0.05   0.04     0.03   0.05   0.02
  32   1     0.02  -0.03  -0.02    -0.02  -0.02  -0.02     0.10  -0.03   0.09
  33   1    -0.01   0.01  -0.01    -0.10   0.01  -0.06    -0.06  -0.01  -0.01
  34   1    -0.03  -0.00  -0.01    -0.09   0.07   0.01    -0.06   0.00  -0.03
  35   1    -0.00   0.01   0.02     0.00   0.04   0.06     0.12  -0.10   0.01
  36   1    -0.01   0.02   0.01    -0.14   0.06   0.00     0.00  -0.01   0.02
  37   1    -0.00  -0.01  -0.01     0.15  -0.13  -0.17    -0.08   0.05   0.06
  38   1    -0.02  -0.01   0.01    -0.14   0.08   0.14     0.12  -0.09  -0.07
  39   1     0.01  -0.00   0.00     0.17  -0.11   0.01     0.04  -0.05  -0.04
  40   1     0.01   0.01  -0.00    -0.01   0.22   0.02    -0.05  -0.16   0.00
  41   1     0.00  -0.01  -0.00    -0.00  -0.20  -0.02    -0.05  -0.06   0.01
  42   1     0.00   0.02  -0.00     0.10   0.22  -0.09    -0.01  -0.24  -0.02
  43   1    -0.01  -0.00  -0.00    -0.14  -0.15  -0.04     0.06  -0.16   0.00
  44   1    -0.02  -0.02  -0.00    -0.05  -0.01  -0.09     0.33   0.35  -0.06
                     37                     38                     39
                        a                      a                      a 
 Frequencies --   941.8048               954.8971               985.8203
 Red. masses --     5.3002                 5.1248                 5.7816
 Frc consts  --     0.0000                 0.0000                 0.0000
 IR Inten    --     3.3626                 2.4596                 1.9163
 Raman Activ --     0.0000                 0.0000                 0.0000
 Depolar     --     0.0000                 0.0000                 0.0000
 Atom AN      X      Y      Z        X      Y      Z        X      Y      Z
   1   6     0.05   0.25   0.04     0.01  -0.00   0.13     0.01  -0.20  -0.03
   2   6     0.18   0.08  -0.02     0.01   0.01  -0.06    -0.11   0.03   0.02
   3   6    -0.25  -0.17   0.02    -0.00  -0.02  -0.12    -0.07   0.25   0.07
   4   6     0.10  -0.09  -0.04    -0.03  -0.10   0.19     0.17   0.03  -0.00
   5   6    -0.02   0.03   0.02    -0.02   0.07  -0.06     0.04  -0.24  -0.12
   6   6     0.04   0.10   0.03     0.16   0.17   0.06    -0.17   0.08   0.08
   7   6     0.13  -0.10  -0.06     0.06  -0.24   0.14     0.10  -0.07  -0.09
   8   6    -0.12  -0.06  -0.04    -0.20  -0.02  -0.22     0.07  -0.13  -0.07
   9   6    -0.09   0.09  -0.01    -0.04   0.12   0.04     0.03   0.13   0.20
  10   6     0.03   0.07   0.01    -0.05  -0.06   0.05    -0.07  -0.04  -0.17
  11   6     0.09  -0.10   0.09     0.07  -0.02  -0.04    -0.02   0.02   0.10
  12   6     0.05  -0.08  -0.13    -0.08   0.06   0.04    -0.01   0.05  -0.01
  13   6    -0.10   0.01   0.02     0.06  -0.01  -0.02    -0.00   0.02  -0.07
  14   6     0.01   0.12   0.09     0.04  -0.10  -0.03     0.03  -0.05   0.07
  15   1    -0.00  -0.16  -0.04    -0.16   0.18  -0.01     0.01   0.07   0.02
  16   1    -0.32   0.25   0.11    -0.03   0.03  -0.09     0.18  -0.15  -0.07
  17   1    -0.00  -0.16  -0.01     0.12  -0.14  -0.13     0.02   0.06  -0.01
  18   1     0.05  -0.08  -0.03    -0.01  -0.23  -0.03    -0.04   0.04   0.02
  19   1     0.06  -0.08  -0.03     0.03   0.23   0.06    -0.03   0.07   0.02
  20   1    -0.07  -0.08  -0.01     0.10   0.19   0.06    -0.02   0.14   0.03
  21   1    -0.06  -0.08  -0.01    -0.07  -0.22   0.02    -0.02   0.10   0.03
  22   1     0.02  -0.02  -0.00     0.14  -0.02  -0.10     0.06   0.08   0.00
  23   1     0.02  -0.00  -0.00    -0.19   0.00  -0.05     0.02   0.07   0.01
  24   1    -0.04  -0.08   0.08     0.05   0.04   0.02    -0.16  -0.20  -0.05
  25   1     0.04   0.01  -0.05     0.04   0.02  -0.08     0.02   0.08   0.01
  26   1    -0.01  -0.06   0.09     0.07   0.07   0.01     0.12   0.02   0.14
  27   1     0.07   0.06  -0.06     0.13   0.15  -0.06    -0.01  -0.12  -0.12
  28   1    -0.01   0.10   0.03    -0.00  -0.12   0.01    -0.11   0.07  -0.02
  29   1     0.03  -0.11   0.10     0.08  -0.01   0.02     0.19  -0.04   0.15
  30   1    -0.03  -0.01  -0.10    -0.17   0.09  -0.03     0.01  -0.03  -0.02
  31   1    -0.04   0.09   0.01    -0.03  -0.06  -0.06    -0.08   0.05  -0.02
  32   1     0.03  -0.02   0.02    -0.07   0.07   0.04     0.02   0.02   0.03
  33   1    -0.13   0.08  -0.01     0.06  -0.06   0.01    -0.05   0.11   0.06
  34   1    -0.10   0.03  -0.02     0.08   0.03   0.04    -0.04  -0.06  -0.05
  35   1     0.03   0.00   0.06    -0.02  -0.01  -0.08    -0.00  -0.02   0.01
  36   1    -0.11  -0.01   0.00     0.02  -0.00  -0.01    -0.09  -0.10  -0.01
  37   1     0.09  -0.04  -0.10     0.01   0.00  -0.00     0.03   0.14  -0.03
  38   1    -0.04   0.06   0.06    -0.02   0.06   0.01    -0.02   0.18   0.02
  39   1     0.12  -0.13  -0.02    -0.03   0.06   0.01     0.02  -0.15  -0.01
  40   1    -0.04   0.11   0.03     0.02   0.04  -0.00    -0.04   0.15   0.05
  41   1    -0.01  -0.18  -0.01     0.01   0.05  -0.00     0.07  -0.13  -0.01
  42   1     0.07   0.06  -0.07    -0.01   0.07   0.02     0.05   0.12  -0.04
  43   1    -0.08  -0.17  -0.03    -0.00   0.08   0.00    -0.08  -0.09  -0.02
  44   1     0.10   0.14  -0.09    -0.12  -0.13   0.03    -0.05  -0.04  -0.04
                     40                     41                     42
                        a                      a                      a 
 Frequencies --   994.5925              1011.3589              1023.9721
 Red. masses --     7.3456                 5.4522                 4.6787
 Frc consts  --     0.0000                 0.0000                 0.0000
 IR Inten    --     1.0222                 1.4336                 0.4421
 Raman Activ --     0.0000                 0.0000                 0.0000
 Depolar     --     0.0000                 0.0000                 0.0000
 Atom AN      X      Y      Z        X      Y      Z        X      Y      Z
   1   6    -0.04   0.08  -0.02     0.03   0.05   0.08    -0.06   0.10  -0.01
   2   6     0.06  -0.03   0.03    -0.01   0.00  -0.09     0.08  -0.06   0.02
   3   6     0.05  -0.10  -0.03     0.06  -0.09  -0.00     0.08  -0.13  -0.07
   4   6    -0.15  -0.07  -0.03     0.01   0.12   0.03    -0.18  -0.04   0.02
   5   6     0.06   0.08   0.16    -0.08   0.11  -0.19     0.10   0.09   0.10
   6   6     0.09   0.09  -0.11     0.03  -0.17   0.20    -0.00   0.02  -0.10
   7   6    -0.03   0.00  -0.03    -0.15   0.10  -0.05    -0.06  -0.02   0.12
   8   6    -0.13  -0.12   0.03     0.13   0.06   0.12     0.05  -0.03  -0.14
   9   6     0.20   0.08   0.02     0.14  -0.17   0.07     0.07   0.02   0.19
  10   6    -0.01  -0.29  -0.16     0.04  -0.05  -0.19    -0.12   0.11  -0.09
  11   6    -0.25   0.03   0.16    -0.15   0.11   0.10     0.07   0.11  -0.07
  12   6     0.09   0.31  -0.01     0.03   0.07   0.01    -0.07  -0.17   0.07
  13   6     0.10   0.08  -0.06     0.03   0.04  -0.07    -0.07  -0.04  -0.07
  14   6    -0.01  -0.22   0.02    -0.03  -0.05   0.06     0.03   0.09   0.07
  15   1     0.04  -0.05   0.00    -0.08   0.05  -0.01     0.02  -0.03   0.01
  16   1    -0.03   0.03   0.04    -0.08   0.07  -0.02    -0.03   0.03   0.04
  17   1    -0.05   0.04   0.04     0.07  -0.11  -0.07    -0.05   0.05   0.04
  18   1     0.04   0.08  -0.01    -0.04  -0.18  -0.00     0.05   0.07  -0.01
  19   1    -0.01  -0.09  -0.03     0.06   0.11   0.04    -0.01  -0.08  -0.03
  20   1     0.01  -0.11  -0.03    -0.02   0.10   0.01     0.05  -0.12  -0.03
  21   1     0.01   0.07   0.01     0.05  -0.24  -0.07    -0.00   0.06   0.02
  22   1    -0.08   0.02   0.04     0.03  -0.20  -0.07    -0.06   0.08   0.03
  23   1     0.01  -0.11  -0.01    -0.02   0.20   0.05    -0.04  -0.12  -0.02
  24   1     0.03   0.07   0.00     0.12   0.14  -0.03     0.06   0.12  -0.06
  25   1    -0.02   0.00   0.08    -0.05  -0.14  -0.06     0.00   0.05   0.06
  26   1     0.02   0.04  -0.05    -0.09  -0.02  -0.05     0.07   0.08  -0.06
  27   1    -0.01   0.01   0.02    -0.06   0.00   0.18    -0.02  -0.03  -0.02
  28   1     0.10   0.04   0.04    -0.15  -0.04  -0.07     0.05  -0.11   0.00
  29   1    -0.01   0.00  -0.01    -0.10   0.02  -0.06     0.07   0.10  -0.04
  30   1    -0.11   0.03  -0.15     0.14  -0.07   0.07    -0.07   0.05   0.05
  31   1     0.10   0.06   0.06    -0.08   0.05   0.01     0.05  -0.14  -0.05
  32   1     0.07   0.01   0.14     0.08  -0.08  -0.05    -0.08   0.07  -0.02
  33   1    -0.08  -0.05  -0.04     0.03   0.05   0.03     0.24  -0.07   0.08
  34   1    -0.06   0.03  -0.04    -0.03  -0.12  -0.08     0.16  -0.16  -0.01
  35   1     0.18  -0.22  -0.08     0.01  -0.01   0.05    -0.20   0.16   0.01
  36   1    -0.11   0.03   0.04    -0.06  -0.10   0.00     0.05  -0.25  -0.05
  37   1    -0.05   0.12   0.03    -0.03   0.14   0.03     0.00   0.23   0.04
  38   1     0.02   0.19   0.00     0.01   0.10  -0.00     0.00   0.11  -0.01
  39   1     0.02   0.05  -0.00    -0.00  -0.14  -0.01    -0.06  -0.27  -0.02
  40   1     0.01   0.11   0.01    -0.03   0.08   0.04    -0.07   0.10   0.06
  41   1     0.06  -0.01  -0.01     0.07  -0.11  -0.01     0.06  -0.15  -0.01
  42   1    -0.00   0.08   0.00     0.03   0.03  -0.03     0.05   0.07  -0.05
  43   1    -0.06  -0.00  -0.00    -0.06  -0.10  -0.01    -0.05  -0.09  -0.02
  44   1    -0.14  -0.16   0.01    -0.00   0.01  -0.03     0.04   0.07  -0.05
                     43                     44                     45
                        a                      a                      a 
 Frequencies --  1055.7428              1076.7038              1080.6238
 Red. masses --     6.4905                 6.6068                 8.3442
 Frc consts  --     0.0000                 0.0000                 0.0000
 IR Inten    --     0.1573                 0.8174                 1.3521
 Raman Activ --     0.0000                 0.0000                 0.0000
 Depolar     --     0.0000                 0.0000                 0.0000
 Atom AN      X      Y      Z        X      Y      Z        X      Y      Z
   1   6     0.12  -0.12  -0.06     0.24  -0.10  -0.04     0.19  -0.05  -0.06
   2   6    -0.13   0.11   0.07    -0.26   0.16   0.03    -0.19   0.11   0.08
   3   6    -0.15   0.20   0.05     0.01   0.10   0.08     0.05   0.04  -0.03
   4   6     0.21  -0.09  -0.00     0.10   0.07  -0.08     0.06   0.11   0.06
   5   6    -0.15  -0.08   0.09    -0.11  -0.05   0.12    -0.14  -0.07   0.03
   6   6     0.20   0.08  -0.08     0.01  -0.06  -0.12    -0.04  -0.19  -0.11
   7   6    -0.03  -0.03   0.03     0.02   0.12  -0.03     0.09   0.11   0.18
   8   6    -0.16   0.22   0.08    -0.04  -0.17  -0.00    -0.00  -0.07  -0.21
   9   6     0.14  -0.25  -0.10     0.10   0.15   0.06    -0.28   0.15   0.03
  10   6     0.05  -0.04  -0.06    -0.16   0.00   0.02     0.14   0.07   0.10
  11   6    -0.08   0.12   0.01     0.07   0.00  -0.08    -0.10  -0.15  -0.00
  12   6    -0.01   0.01   0.04    -0.00  -0.11   0.01     0.08   0.18   0.01
  13   6     0.04   0.04  -0.06    -0.19  -0.18   0.04     0.20   0.22  -0.07
  14   6    -0.05  -0.03   0.04     0.19   0.13  -0.05    -0.19  -0.17   0.07
  15   1     0.04  -0.07  -0.02     0.03  -0.12  -0.05     0.05  -0.13  -0.04
  16   1     0.02  -0.03  -0.00    -0.08   0.05   0.01    -0.07   0.05   0.03
  17   1     0.02  -0.05  -0.01     0.08  -0.18  -0.06     0.04  -0.12  -0.02
  18   1    -0.03   0.04   0.01    -0.09  -0.06   0.02    -0.04   0.01   0.00
  19   1    -0.05  -0.01   0.00    -0.03   0.04   0.03    -0.06  -0.03   0.00
  20   1    -0.02   0.01   0.01    -0.05   0.02  -0.00     0.04  -0.12  -0.02
  21   1    -0.06   0.07   0.03     0.05  -0.14  -0.06     0.00  -0.05  -0.00
  22   1     0.07   0.04  -0.01    -0.01  -0.21  -0.03     0.04   0.05  -0.00
  23   1     0.03  -0.12  -0.04     0.09   0.05   0.02    -0.00  -0.08  -0.03
  24   1    -0.07  -0.17   0.17     0.04   0.04   0.05     0.07   0.07   0.01
  25   1     0.06   0.00  -0.09    -0.12  -0.21   0.08    -0.02  -0.07  -0.03
  26   1    -0.10  -0.08  -0.02    -0.01   0.01  -0.08    -0.01   0.02  -0.10
  27   1     0.17   0.26  -0.06    -0.10  -0.10   0.07    -0.01   0.01   0.00
  28   1     0.10   0.01   0.04     0.19   0.09   0.07     0.05  -0.09   0.00
  29   1    -0.27  -0.08  -0.12     0.02   0.04  -0.00     0.12   0.13  -0.01
  30   1    -0.09   0.09   0.03    -0.08   0.01  -0.13     0.10  -0.09   0.00
  31   1     0.00   0.01   0.02     0.19  -0.04   0.04    -0.01  -0.08  -0.07
  32   1     0.03  -0.06  -0.06    -0.01   0.06   0.11    -0.07   0.04  -0.04
  33   1     0.17  -0.14  -0.02     0.04  -0.08  -0.01    -0.03   0.07   0.02
  34   1     0.08  -0.11  -0.02     0.01   0.07   0.03     0.11  -0.10   0.02
  35   1    -0.06   0.05   0.01    -0.01  -0.02  -0.07     0.07  -0.01   0.08
  36   1     0.01  -0.09  -0.01     0.04   0.01  -0.01     0.01  -0.17  -0.01
  37   1    -0.04   0.10   0.04     0.01   0.12   0.02    -0.04  -0.11   0.02
  38   1     0.01   0.01  -0.01    -0.00   0.08   0.00     0.04   0.04  -0.02
  39   1    -0.03  -0.12  -0.01    -0.02   0.03   0.00     0.00  -0.03  -0.01
  40   1    -0.01   0.03   0.02    -0.06  -0.01   0.02     0.05   0.04  -0.01
  41   1     0.05  -0.06  -0.01    -0.05  -0.02   0.02     0.07   0.01  -0.02
  42   1     0.01  -0.02  -0.02     0.04   0.14   0.00    -0.03  -0.12  -0.01
  43   1    -0.03  -0.08  -0.00     0.03   0.13  -0.00    -0.05  -0.15   0.00
  44   1     0.03   0.03  -0.02    -0.05  -0.04   0.01     0.04   0.03  -0.02
                     46                     47                     48
                        a                      a                      a 
 Frequencies --  1094.5639              1103.1536              1111.1554
 Red. masses --     5.1696                 8.2207                 7.7057
 Frc consts  --     0.0000                 0.0000                 0.0000
 IR Inten    --     0.2006                 0.0738                 0.2208
 Raman Activ --     0.0000                 0.0000                 0.0000
 Depolar     --     0.0000                 0.0000                 0.0000
 Atom AN      X      Y      Z        X      Y      Z        X      Y      Z
   1   6     0.12  -0.03  -0.08    -0.28   0.18   0.10     0.04  -0.11  -0.02
   2   6    -0.11   0.08   0.12     0.21  -0.34  -0.13     0.04   0.19   0.01
   3   6     0.04  -0.01  -0.12     0.04   0.11   0.04    -0.13  -0.10   0.03
   4   6    -0.01   0.02   0.17     0.17   0.20   0.03    -0.07  -0.18  -0.09
   5   6    -0.09  -0.03  -0.09    -0.20  -0.17   0.02     0.16   0.15  -0.00
   6   6     0.03  -0.10   0.03     0.01  -0.15  -0.07    -0.01   0.05   0.06
   7   6    -0.02   0.02   0.13     0.09   0.13   0.09    -0.03  -0.04  -0.04
   8   6     0.02   0.06  -0.08    -0.08  -0.02  -0.08     0.04  -0.02   0.01
   9   6     0.03  -0.05   0.07    -0.09   0.06  -0.03    -0.19   0.02  -0.09
  10   6     0.01  -0.03  -0.08     0.04   0.04   0.08     0.18  -0.00   0.08
  11   6    -0.05   0.02   0.05    -0.11  -0.08  -0.04    -0.17  -0.02   0.03
  12   6     0.03   0.01  -0.02     0.08   0.12   0.04    -0.07   0.33   0.10
  13   6    -0.22  -0.26   0.06    -0.10  -0.16  -0.02     0.05  -0.35  -0.08
  14   6     0.23   0.16  -0.07     0.14   0.08  -0.02     0.11   0.19  -0.01
  15   1     0.07  -0.12  -0.02    -0.08   0.14   0.04     0.01   0.03   0.01
  16   1    -0.04   0.03   0.04     0.01   0.00  -0.01     0.07  -0.06  -0.03
  17   1    -0.00  -0.04   0.01    -0.07   0.13   0.03     0.03   0.01  -0.01
  18   1     0.01   0.10  -0.01     0.05  -0.17  -0.04    -0.01   0.11   0.03
  19   1    -0.08  -0.05  -0.01     0.07  -0.14  -0.04     0.02   0.15   0.03
  20   1     0.10  -0.17  -0.03     0.00   0.09   0.02    -0.06   0.02   0.00
  21   1    -0.05   0.04   0.05     0.03   0.06  -0.00    -0.03  -0.02  -0.00
  22   1     0.07   0.23   0.01     0.04   0.08   0.02    -0.05  -0.11  -0.01
  23   1    -0.10  -0.18  -0.07     0.04   0.08   0.01     0.01   0.03   0.02
  24   1     0.05   0.07  -0.03    -0.05  -0.11   0.10    -0.01   0.00  -0.02
  25   1     0.08   0.09  -0.13    -0.02  -0.09  -0.05     0.03   0.08   0.03
  26   1    -0.00   0.03  -0.07    -0.09  -0.08  -0.04    -0.03  -0.05   0.07
  27   1     0.10   0.16  -0.02     0.04   0.07  -0.01    -0.02  -0.05   0.00
  28   1    -0.19  -0.15  -0.08     0.14   0.02   0.05     0.01   0.02   0.01
  29   1     0.05   0.08  -0.02    -0.05   0.04  -0.05    -0.05  -0.04  -0.01
  30   1     0.15  -0.10   0.08     0.06  -0.06  -0.04     0.02  -0.01   0.02
  31   1    -0.21   0.07  -0.05     0.05  -0.04  -0.01     0.08  -0.07   0.00
  32   1     0.11  -0.09  -0.02     0.01  -0.00   0.00    -0.11   0.05  -0.05
  33   1    -0.08   0.10   0.02     0.03  -0.04  -0.01    -0.01   0.01  -0.01
  34   1    -0.11   0.04  -0.04     0.08  -0.04   0.03     0.14  -0.13   0.02
  35   1     0.11  -0.08   0.02     0.08  -0.05   0.03     0.04   0.00   0.06
  36   1    -0.03   0.09   0.02     0.03  -0.13  -0.01    -0.01  -0.14  -0.00
  37   1    -0.00   0.05   0.00    -0.06   0.03   0.05    -0.06  -0.10   0.03
  38   1    -0.00   0.06   0.01     0.04   0.15  -0.02    -0.00   0.17   0.01
  39   1     0.01   0.09   0.00    -0.03   0.04  -0.00    -0.06   0.08   0.01
  40   1    -0.06  -0.06   0.01    -0.04  -0.04   0.02     0.01  -0.24  -0.02
  41   1    -0.06  -0.06   0.02     0.01  -0.10  -0.00     0.04  -0.27  -0.03
  42   1     0.04   0.16   0.01     0.04   0.11  -0.01     0.05   0.04  -0.03
  43   1     0.04   0.17  -0.01     0.01   0.07  -0.01     0.03   0.01  -0.01
  44   1    -0.06  -0.05   0.02    -0.03  -0.02  -0.00     0.07   0.08  -0.02
                     49                     50                     51
                        a                      a                      a 
 Frequencies --  1119.1424              1119.7648              1129.2409
 Red. masses --     7.1145                 7.5187                 7.4939
 Frc consts  --     0.0000                 0.0000                 0.0000
 IR Inten    --     1.5678                 0.1682                 0.5859
 Raman Activ --     0.0000                 0.0000                 0.0000
 Depolar     --     0.0000                 0.0000                 0.0000
 Atom AN      X      Y      Z        X      Y      Z        X      Y      Z
   1   6    -0.01  -0.12  -0.02     0.03  -0.05  -0.01     0.04   0.04  -0.00
   2   6     0.16   0.23   0.01     0.10   0.17   0.01    -0.09  -0.06   0.01
   3   6    -0.15  -0.25  -0.02     0.10  -0.38  -0.08     0.13   0.02  -0.02
   4   6    -0.04  -0.04  -0.01    -0.09   0.38   0.14    -0.04   0.10   0.05
   5   6     0.04   0.06  -0.06    -0.14  -0.27  -0.02    -0.02  -0.09   0.01
   6   6    -0.00  -0.07   0.07    -0.05   0.02  -0.04    -0.00   0.11  -0.01
   7   6     0.00   0.08   0.01     0.12   0.02  -0.00    -0.03  -0.08  -0.06
   8   6    -0.01  -0.02   0.00    -0.13   0.06   0.02     0.02   0.08   0.11
   9   6     0.02   0.02   0.01     0.05  -0.05  -0.06     0.23  -0.15   0.07
  10   6    -0.16   0.20   0.13     0.07  -0.11  -0.05    -0.29   0.23  -0.01
  11   6    -0.04  -0.27  -0.15     0.02   0.15   0.05     0.01  -0.38  -0.06
  12   6     0.27  -0.06  -0.05    -0.12  -0.01   0.04     0.02   0.31  -0.02
  13   6    -0.17   0.18   0.03     0.07  -0.06  -0.02     0.12  -0.08  -0.05
  14   6     0.05  -0.12  -0.01    -0.03   0.05   0.01    -0.02   0.02   0.00
  15   1     0.01   0.06   0.02     0.01   0.02   0.00     0.01  -0.05  -0.02
  16   1     0.12  -0.09  -0.04     0.04  -0.03  -0.02    -0.06   0.05   0.02
  17   1     0.01   0.06  -0.00     0.02   0.01  -0.01     0.00  -0.05  -0.00
  18   1     0.03   0.19   0.03     0.02   0.16   0.03    -0.01  -0.05  -0.01
  19   1     0.03   0.20   0.03     0.03   0.16   0.03    -0.02  -0.06  -0.01
  20   1    -0.04  -0.06  -0.00     0.03  -0.16  -0.03     0.04  -0.01  -0.01
  21   1    -0.04  -0.05  -0.00     0.04  -0.19  -0.05     0.03  -0.02  -0.01
  22   1    -0.02   0.06   0.02    -0.03   0.29   0.08    -0.01   0.06   0.01
  23   1    -0.02   0.10   0.02    -0.04   0.24   0.07    -0.01   0.00   0.00
  24   1    -0.04  -0.05   0.01    -0.08  -0.11  -0.00    -0.01  -0.01  -0.03
  25   1     0.05   0.08  -0.05    -0.08  -0.09   0.04    -0.04  -0.04   0.04
  26   1    -0.12  -0.13   0.06     0.00  -0.02   0.03     0.09   0.08  -0.00
  27   1     0.03   0.06   0.03     0.01  -0.01  -0.06    -0.01  -0.03  -0.03
  28   1     0.04   0.02   0.01     0.11   0.08   0.05    -0.05   0.02  -0.01
  29   1    -0.12  -0.02  -0.06     0.04  -0.01   0.04     0.01  -0.04   0.03
  30   1     0.09  -0.07  -0.00    -0.11   0.08  -0.05    -0.07   0.08   0.02
  31   1     0.06  -0.03   0.01    -0.01   0.05   0.02    -0.07   0.08   0.03
  32   1     0.09  -0.06   0.03    -0.03   0.02  -0.00     0.06  -0.04   0.01
  33   1     0.07  -0.06   0.00     0.02  -0.05  -0.02     0.13  -0.06   0.03
  34   1    -0.03   0.07   0.04     0.04  -0.03  -0.01    -0.23   0.15  -0.02
  35   1     0.04  -0.01   0.01    -0.03   0.01  -0.02    -0.17   0.12  -0.00
  36   1     0.08  -0.20  -0.04    -0.02   0.08   0.01    -0.03  -0.25  -0.04
  37   1    -0.04   0.05   0.05     0.01   0.01  -0.01     0.01  -0.21  -0.05
  38   1     0.09   0.10  -0.05    -0.04  -0.05   0.02     0.00   0.10   0.00
  39   1     0.03   0.00  -0.02    -0.02  -0.02   0.01     0.03   0.18   0.01
  40   1    -0.06   0.19   0.05     0.02  -0.07  -0.02     0.04  -0.11  -0.03
  41   1    -0.01   0.13   0.03     0.01  -0.05  -0.01     0.03  -0.11  -0.02
  42   1    -0.00   0.09   0.01     0.00  -0.04  -0.01     0.00  -0.04  -0.01
  43   1    -0.03   0.06  -0.00     0.01  -0.03   0.00     0.01  -0.03  -0.00
  44   1    -0.11  -0.12   0.02     0.05   0.05  -0.01     0.04   0.04  -0.01
                     52                     53                     54
                        a                      a                      a 
 Frequencies --  1147.0751              1150.6562              1157.9322
 Red. masses --     8.3477                 7.9431                 7.1309
 Frc consts  --     0.0000                 0.0000                 0.0000
 IR Inten    --     1.0188                 0.3859                 0.1708
 Raman Activ --     0.0000                 0.0000                 0.0000
 Depolar     --     0.0000                 0.0000                 0.0000
 Atom AN      X      Y      Z        X      Y      Z        X      Y      Z
   1   6    -0.10  -0.07   0.00     0.02   0.00   0.01    -0.05  -0.05   0.03
   2   6     0.19   0.10  -0.01    -0.05  -0.01  -0.02     0.13   0.09  -0.07
   3   6    -0.26  -0.03   0.03     0.03   0.05   0.04    -0.15  -0.10   0.11
   4   6     0.16  -0.11  -0.06    -0.06  -0.08  -0.08     0.10   0.06  -0.15
   5   6    -0.09   0.13   0.01     0.15   0.08  -0.02    -0.06  -0.03   0.32
   6   6    -0.00  -0.28  -0.04    -0.25  -0.18   0.01     0.04   0.14  -0.32
   7   6     0.09   0.20   0.18     0.37   0.03   0.21    -0.10  -0.17   0.13
   8   6    -0.10  -0.06  -0.13    -0.29   0.31  -0.04     0.12   0.11  -0.10
   9   6     0.19   0.07   0.18     0.03  -0.23  -0.13    -0.06  -0.11   0.09
  10   6    -0.20  -0.05  -0.14     0.09   0.01  -0.02     0.09   0.05  -0.11
  11   6     0.17   0.00   0.04    -0.09   0.01   0.02    -0.08  -0.03   0.12
  12   6    -0.23   0.07   0.02     0.10   0.00  -0.02     0.11   0.01  -0.10
  13   6     0.20  -0.07  -0.04    -0.10   0.02   0.02    -0.09   0.02   0.08
  14   6    -0.10   0.05   0.01     0.06  -0.02  -0.01     0.05  -0.02  -0.04
  15   1    -0.00   0.09   0.03    -0.01  -0.01  -0.01    -0.03   0.09   0.02
  16   1     0.11  -0.09  -0.04    -0.02   0.01  -0.00     0.07  -0.05  -0.04
  17   1    -0.02   0.10   0.01     0.01  -0.03  -0.01     0.01   0.04  -0.01
  18   1     0.05   0.08   0.01    -0.03  -0.05   0.00     0.00   0.04   0.02
  19   1     0.04   0.08   0.00     0.01  -0.00   0.00     0.07   0.09   0.02
  20   1    -0.06  -0.01   0.01    -0.02   0.03   0.00    -0.11   0.05   0.01
  21   1    -0.07   0.02   0.02     0.02   0.02  -0.01     0.02  -0.09  -0.04
  22   1     0.04  -0.08  -0.03    -0.04  -0.13  -0.02    -0.06  -0.11   0.02
  23   1     0.04  -0.05  -0.02     0.02   0.01   0.01     0.12   0.03   0.03
  24   1     0.07   0.07   0.05     0.02   0.08  -0.10     0.00   0.00   0.09
  25   1     0.04  -0.01  -0.09     0.02   0.07   0.04    -0.12  -0.20   0.16
  26   1    -0.11  -0.07  -0.09    -0.01  -0.06   0.06     0.17   0.19  -0.14
  27   1    -0.01   0.04   0.09    -0.11  -0.16   0.00     0.02   0.01  -0.11
  28   1     0.08  -0.04   0.02     0.15   0.05   0.09    -0.06  -0.15  -0.03
  29   1     0.08   0.13  -0.02     0.24   0.06   0.13     0.05   0.05  -0.03
  30   1     0.01  -0.04  -0.04    -0.14   0.13   0.03     0.05   0.01   0.11
  31   1    -0.05   0.04  -0.03    -0.22   0.16  -0.03    -0.17  -0.01  -0.08
  32   1     0.08  -0.00   0.07     0.05  -0.09  -0.08    -0.02  -0.03  -0.09
  33   1     0.03  -0.00   0.04     0.09  -0.08  -0.02     0.00   0.12   0.05
  34   1    -0.16   0.12  -0.04     0.00  -0.05  -0.02    -0.07  -0.06  -0.06
  35   1    -0.07  -0.00  -0.07     0.01   0.01   0.03    -0.01   0.04   0.08
  36   1    -0.06   0.08   0.00    -0.00  -0.03   0.00    -0.07   0.02   0.02
  37   1     0.08  -0.03  -0.07    -0.03   0.00   0.02     0.01  -0.07  -0.03
  38   1    -0.08  -0.04   0.04     0.03  -0.01  -0.02     0.01  -0.04   0.01
  39   1    -0.00   0.07   0.03     0.01  -0.01  -0.01     0.07   0.03  -0.01
  40   1     0.07  -0.10  -0.04    -0.03   0.03   0.02    -0.01   0.02  -0.01
  41   1     0.02  -0.06  -0.03    -0.01   0.01   0.01    -0.05   0.05   0.02
  42   1    -0.01  -0.11  -0.01     0.01   0.06   0.00    -0.01   0.03   0.02
  43   1     0.02  -0.07   0.00    -0.01   0.04  -0.00     0.02   0.07   0.00
  44   1     0.09   0.09  -0.01    -0.04  -0.05   0.01    -0.04  -0.06   0.02
                     55                     56                     57
                        a                      a                      a 
 Frequencies --  1186.3253              1187.9955              1221.9126
 Red. masses --     5.7574                 5.9889                 4.7353
 Frc consts  --     0.0000                 0.0000                 0.0000
 IR Inten    --     0.7252                 0.6792                 0.7413
 Raman Activ --     0.0000                 0.0000                 0.0000
 Depolar     --     0.0000                 0.0000                 0.0000
 Atom AN      X      Y      Z        X      Y      Z        X      Y      Z
   1   6     0.05   0.01   0.06     0.08   0.03   0.07    -0.05   0.06  -0.27
   2   6    -0.09  -0.00  -0.10    -0.16  -0.04  -0.11     0.05  -0.08   0.35
   3   6     0.11  -0.04   0.11     0.21  -0.01   0.09    -0.01   0.05  -0.23
   4   6    -0.13   0.01  -0.13    -0.21  -0.02  -0.09    -0.02   0.00   0.09
   5   6     0.14  -0.01   0.14     0.19  -0.00   0.02     0.08   0.00   0.02
   6   6    -0.05   0.05  -0.14    -0.02  -0.03  -0.01    -0.06   0.10  -0.03
   7   6     0.01  -0.07   0.13    -0.01   0.09   0.12     0.02  -0.07   0.07
   8   6    -0.01   0.08  -0.05    -0.01  -0.03  -0.20    -0.01   0.08  -0.11
   9   6     0.01   0.03  -0.06    -0.00   0.06   0.23    -0.05   0.00   0.06
  10   6    -0.11  -0.04   0.16    -0.01   0.01  -0.21    -0.02   0.01  -0.03
  11   6     0.12   0.03  -0.24     0.01  -0.02   0.20     0.04  -0.00   0.01
  12   6    -0.14  -0.05   0.22    -0.01   0.04  -0.17    -0.05  -0.00  -0.02
  13   6     0.09  -0.03  -0.20     0.01  -0.01   0.14     0.04  -0.02   0.02
  14   6    -0.04   0.02   0.11    -0.01   0.00  -0.08    -0.02   0.01  -0.02
  15   1    -0.04   0.02  -0.01    -0.05  -0.00  -0.02     0.20  -0.19  -0.01
  16   1    -0.04   0.03  -0.02    -0.07   0.06  -0.01     0.02  -0.01   0.12
  17   1     0.05  -0.07  -0.04     0.06  -0.11  -0.04    -0.17   0.15   0.14
  18   1    -0.07  -0.03   0.03    -0.10  -0.06   0.03     0.19  -0.12  -0.13
  19   1     0.05   0.02   0.02     0.05   0.01   0.02    -0.23   0.13   0.01
  20   1    -0.07   0.06  -0.00    -0.04   0.04  -0.01     0.14   0.12   0.04
  21   1     0.09  -0.00  -0.05     0.11   0.05  -0.04    -0.11  -0.14   0.04
  22   1    -0.11  -0.01   0.05    -0.11   0.05   0.05     0.05  -0.23  -0.09
[...]
 Depolar     --     0.0000                 0.0000                 0.0000
 Atom AN      X      Y      Z        X      Y      Z        X      Y      Z
   1   6     0.01   0.01   0.00     0.00   0.00  -0.02     0.00   0.00  -0.00
   2   6    -0.12  -0.01   0.00     0.05  -0.02   0.08    -0.01  -0.00   0.01
   3   6     0.03   0.01  -0.04    -0.08  -0.04   0.16    -0.01  -0.01   0.02
   4   6     0.05   0.00  -0.01     0.09  -0.02   0.08    -0.00  -0.00   0.01
   5   6     0.03  -0.04  -0.03     0.01  -0.02  -0.03     0.01  -0.00   0.01
   6   6     0.05  -0.02   0.04     0.03  -0.03  -0.01     0.01  -0.00   0.00
   7   6     0.02  -0.10   0.03     0.01  -0.03  -0.00     0.01  -0.03  -0.00
   8   6    -0.03  -0.04   0.01    -0.00  -0.00  -0.00    -0.02  -0.03  -0.07
   9   6    -0.01  -0.00   0.04     0.00   0.00   0.01    -0.01  -0.01   0.03
  10   6    -0.01  -0.01   0.01     0.00   0.01   0.01    -0.03  -0.03   0.03
  11   6    -0.00  -0.00   0.00     0.01   0.00   0.00    -0.06  -0.02   0.11
  12   6    -0.01  -0.00  -0.01    -0.01  -0.00   0.00     0.07  -0.01   0.10
  13   6     0.05   0.00  -0.03     0.03   0.00  -0.01    -0.07  -0.01   0.10
  14   6    -0.00   0.00   0.00    -0.00   0.00   0.00     0.00  -0.01  -0.02
  15   1    -0.01  -0.00   0.02    -0.03  -0.01   0.06    -0.01  -0.00   0.02
  16   1    -0.01  -0.02  -0.00    -0.00  -0.00  -0.00    -0.00  -0.00  -0.00
  17   1    -0.03   0.01  -0.03     0.03  -0.00   0.02     0.00   0.00   0.00
  18   1     0.32  -0.04   0.32    -0.23   0.03  -0.22     0.02  -0.00   0.02
  19   1     0.13   0.08  -0.32     0.04   0.02  -0.07     0.03   0.02  -0.07
  20   1    -0.08  -0.04   0.18     0.28   0.15  -0.62     0.04   0.02  -0.08
  21   1    -0.04   0.01  -0.05     0.02  -0.01   0.05    -0.01   0.00  -0.00
  22   1    -0.10   0.02  -0.12    -0.32   0.07  -0.34    -0.02   0.00  -0.02
  23   1    -0.07  -0.04   0.14    -0.02  -0.02   0.07     0.02   0.01  -0.03
  24   1    -0.14   0.15   0.11    -0.10   0.10   0.07     0.00  -0.00  -0.00
  25   1     0.03  -0.01   0.01     0.06  -0.02   0.04    -0.02   0.01  -0.01
  26   1     0.02  -0.03  -0.02    -0.05   0.07   0.06    -0.00   0.00   0.00
  27   1    -0.19   0.08  -0.12    -0.04   0.02  -0.03    -0.03   0.01  -0.02
  28   1     0.10   0.12  -0.33     0.02   0.02  -0.07     0.02   0.02  -0.06
  29   1    -0.18   0.25   0.21    -0.06   0.09   0.07    -0.06   0.09   0.07
  30   1     0.10   0.14  -0.00     0.01   0.01  -0.00     0.14   0.18  -0.01
  31   1     0.00  -0.00  -0.02    -0.00  -0.00   0.00    -0.07  -0.07   0.25
  32   1    -0.02  -0.02   0.01    -0.02  -0.02   0.00     0.00   0.01   0.00
  33   1     0.03   0.03  -0.14     0.01   0.01  -0.03     0.02   0.02  -0.11
  34   1     0.01   0.01  -0.03     0.01   0.01  -0.05     0.02   0.01  -0.09
  35   1     0.03   0.04  -0.00    -0.03  -0.04   0.00     0.07   0.09  -0.00
  36   1     0.00   0.00  -0.02    -0.00  -0.00   0.02     0.07   0.07  -0.49
  37   1     0.00  -0.00   0.00    -0.04   0.00  -0.02     0.14  -0.01   0.09
  38   1     0.06  -0.00   0.04     0.04  -0.00   0.03    -0.33   0.01  -0.21
  39   1     0.00   0.00  -0.01     0.01   0.00  -0.03     0.05   0.02  -0.14
  40   1    -0.14   0.01  -0.10    -0.08   0.00  -0.06     0.16  -0.01   0.13
  41   1    -0.05  -0.02   0.21    -0.02  -0.01   0.09     0.12   0.05  -0.47
  42   1     0.01   0.00   0.01     0.00   0.00   0.00     0.01  -0.00   0.01
  43   1     0.01   0.00  -0.02     0.00   0.00  -0.00    -0.02  -0.01   0.06
  44   1     0.01  -0.01  -0.00     0.00  -0.01  -0.00    -0.02   0.03   0.01
                    115                    116                    117
                        a                      a                      a 
 Frequencies --  2985.5826              2986.5721              2989.3062
 Red. masses --     1.5970                 1.6171                 1.5933
 Frc consts  --     0.0000                 0.0000                 0.0000
 IR Inten    --    99.4614               183.8000                55.5582
 Raman Activ --     0.0000                 0.0000                 0.0000
 Depolar     --     0.0000                 0.0000                 0.0000
 Atom AN      X      Y      Z        X      Y      Z        X      Y      Z
   1   6    -0.02  -0.01   0.00    -0.02  -0.01   0.00     0.01   0.01  -0.00
   2   6     0.10   0.01  -0.03     0.07   0.01  -0.02    -0.02  -0.00   0.00
   3   6     0.08   0.02  -0.05     0.06   0.01  -0.03    -0.02  -0.00   0.01
   4   6     0.08   0.01  -0.02     0.07   0.00  -0.00    -0.02  -0.00   0.00
   5   6    -0.01  -0.02  -0.05     0.04  -0.02   0.01     0.00   0.01   0.01
   6   6     0.01   0.01   0.02     0.01   0.01   0.03    -0.00   0.00  -0.00
   7   6    -0.01  -0.01   0.03     0.02  -0.02  -0.04     0.00   0.01  -0.01
   8   6    -0.00   0.00   0.10    -0.01  -0.02  -0.15     0.00   0.00  -0.01
   9   6    -0.02  -0.03   0.05     0.02   0.03  -0.07    -0.01  -0.02  -0.02
  10   6    -0.00  -0.00   0.04     0.00  -0.01  -0.06     0.01   0.02  -0.01
  11   6     0.00  -0.01   0.04     0.00   0.01  -0.05     0.07   0.00  -0.01
  12   6     0.05  -0.00   0.04     0.00   0.00  -0.03     0.19   0.01   0.04
  13   6     0.01  -0.00   0.02     0.00   0.00  -0.02     0.08   0.00  -0.00
  14   6    -0.00   0.00  -0.01     0.00  -0.00   0.01    -0.03   0.01   0.00
  15   1     0.02   0.01  -0.05     0.02   0.01  -0.04    -0.01  -0.00   0.02
  16   1     0.03   0.04   0.00     0.02   0.03   0.00    -0.01  -0.02  -0.00
  17   1     0.03  -0.01   0.03     0.02  -0.01   0.03    -0.01   0.00  -0.01
  18   1    -0.22   0.03  -0.23    -0.16   0.02  -0.16     0.05  -0.01   0.05
  19   1    -0.13  -0.08   0.32    -0.09  -0.06   0.22     0.03   0.02  -0.06
  20   1    -0.13  -0.07   0.31    -0.09  -0.05   0.21     0.03   0.02  -0.07
  21   1    -0.12   0.02  -0.14    -0.10   0.02  -0.11     0.03  -0.01   0.03
  22   1    -0.16   0.04  -0.19    -0.16   0.04  -0.17     0.04  -0.01   0.05
  23   1    -0.12  -0.08   0.25    -0.09  -0.05   0.18     0.03   0.02  -0.06
  24   1    -0.12   0.12   0.09    -0.04   0.05   0.04     0.04  -0.04  -0.03
  25   1     0.16  -0.05   0.11    -0.08   0.02  -0.06    -0.04   0.01  -0.03
  26   1     0.03  -0.05  -0.04     0.05  -0.07  -0.06    -0.01   0.01   0.01
  27   1    -0.06   0.03  -0.03    -0.08   0.04  -0.04     0.02  -0.01   0.01
  28   1     0.03   0.04  -0.10    -0.02  -0.03   0.06    -0.01  -0.01   0.03
  29   1     0.01  -0.02  -0.01    -0.06   0.09   0.07     0.01  -0.01  -0.01
  30   1    -0.08  -0.11   0.02     0.16   0.21  -0.03     0.00   0.00  -0.00
  31   1     0.09   0.09  -0.36    -0.14  -0.14   0.54    -0.01  -0.01   0.04
  32   1     0.05   0.06   0.00    -0.03  -0.05  -0.01     0.07   0.10  -0.01
  33   1     0.04   0.04  -0.18    -0.05  -0.06   0.25    -0.02  -0.02   0.08
  34   1     0.04   0.03  -0.16    -0.05  -0.05   0.23    -0.01  -0.00   0.04
  35   1    -0.03  -0.03   0.01     0.06   0.07  -0.01    -0.04  -0.05   0.00
  36   1     0.02   0.02  -0.13    -0.03  -0.02   0.16    -0.01  -0.02   0.15
  37   1    -0.03   0.00  -0.01     0.02  -0.00   0.00    -0.21   0.02  -0.12
  38   1    -0.20   0.00  -0.13     0.01   0.00   0.00    -0.63   0.01  -0.43
  39   1     0.01   0.00  -0.02    -0.03  -0.01   0.11    -0.04  -0.03   0.28
  40   1    -0.04   0.00  -0.03     0.01  -0.00   0.00    -0.24   0.01  -0.17
  41   1     0.01   0.00  -0.04    -0.02  -0.01   0.07    -0.04  -0.02   0.18
  42   1     0.02  -0.00   0.01    -0.01   0.00  -0.00     0.07  -0.00   0.05
  43   1    -0.00  -0.00   0.01     0.01   0.00  -0.02     0.01   0.01  -0.05
  44   1     0.00  -0.00  -0.00     0.00  -0.00   0.00     0.03  -0.05  -0.02
                    118                    119                    120
                        a                      a                      a 
 Frequencies --  2999.9174              3009.1420              3020.9400
 Red. masses --     1.6834                 1.6518                 1.6913
 Frc consts  --     0.0000                 0.0000                 0.0000
 IR Inten    --    85.0644                76.4651                63.8817
 Raman Activ --     0.0000                 0.0000                 0.0000
 Depolar     --     0.0000                 0.0000                 0.0000
 Atom AN      X      Y      Z        X      Y      Z        X      Y      Z
   1   6    -0.01  -0.00  -0.00    -0.00  -0.01   0.01    -0.00  -0.01   0.01
   2   6     0.01   0.00   0.00     0.00   0.00  -0.01     0.00   0.00  -0.00
   3   6     0.03   0.00   0.00     0.01   0.01  -0.03    -0.00   0.00  -0.01
   4   6     0.04  -0.01   0.04    -0.01   0.01  -0.03     0.00   0.00  -0.00
   5   6     0.16  -0.03   0.15    -0.02  -0.01  -0.06     0.01  -0.01  -0.01
   6   6     0.05  -0.06  -0.03     0.06  -0.13  -0.15     0.03  -0.05  -0.05
   7   6     0.00  -0.01   0.01     0.02  -0.02  -0.03     0.01  -0.01  -0.01
   8   6    -0.00  -0.00   0.05     0.01   0.01  -0.02    -0.02  -0.03  -0.00
   9   6     0.00   0.01   0.02     0.04   0.06  -0.00    -0.13  -0.19  -0.01
  10   6    -0.00   0.00   0.01     0.01   0.01  -0.00    -0.02  -0.02  -0.00
  11   6    -0.00  -0.00   0.01     0.00   0.00  -0.00    -0.01   0.00  -0.01
  12   6     0.00  -0.00   0.01     0.01   0.00   0.00    -0.02  -0.00  -0.01
  13   6    -0.00  -0.00   0.00     0.00  -0.00   0.00    -0.00   0.00  -0.00
  14   6     0.00  -0.00  -0.00    -0.00   0.00   0.00     0.02  -0.01   0.01
  15   1     0.00   0.00  -0.01     0.02   0.01  -0.04     0.01   0.00  -0.02
  16   1     0.01   0.01   0.00     0.01   0.01   0.00     0.01   0.02   0.00
  17   1     0.02  -0.00   0.02    -0.01   0.00  -0.01    -0.01   0.00  -0.01
  18   1    -0.03   0.00  -0.03     0.01  -0.00   0.01    -0.00   0.00  -0.00
  19   1    -0.00  -0.00   0.02    -0.01  -0.00   0.02    -0.00  -0.00   0.00
  20   1    -0.03  -0.02   0.07    -0.06  -0.03   0.12    -0.01  -0.00   0.01
  21   1    -0.08   0.01  -0.08    -0.00   0.00  -0.01     0.01  -0.00   0.01
  22   1    -0.12   0.03  -0.13     0.04  -0.01   0.04     0.00  -0.00  -0.00
  23   1     0.01  -0.00   0.00    -0.02  -0.01   0.04    -0.01  -0.00   0.01
  24   1     0.11  -0.09  -0.05    -0.10   0.10   0.06    -0.02   0.02   0.02
  25   1    -0.68   0.18  -0.49     0.18  -0.05   0.12     0.01  -0.00   0.00
  26   1    -0.12   0.18   0.15    -0.39   0.57   0.47    -0.13   0.19   0.15
  27   1    -0.05   0.02  -0.04     0.17  -0.09   0.08     0.03  -0.02   0.01
  28   1     0.01   0.02  -0.04    -0.02  -0.03   0.06    -0.00  -0.00   0.00
  29   1    -0.01   0.01   0.01    -0.05   0.07   0.05    -0.02   0.03   0.03
  30   1    -0.03  -0.03   0.01    -0.00  -0.00  -0.00     0.06   0.08  -0.00
  31   1     0.04   0.05  -0.18    -0.02  -0.02   0.08    -0.01  -0.01   0.01
  32   1    -0.03  -0.04   0.01    -0.16  -0.22   0.01     0.53   0.72  -0.04
  33   1     0.01   0.01  -0.06     0.01   0.01   0.00    -0.04  -0.05   0.09
  34   1     0.01   0.01  -0.03    -0.00  -0.00   0.01    -0.00  -0.00   0.00
  35   1    -0.00  -0.01   0.00    -0.02  -0.02   0.00     0.06   0.08  -0.01
  36   1     0.00   0.00  -0.02    -0.00  -0.00   0.01    -0.00  -0.00   0.01
  37   1     0.00  -0.00   0.00    -0.01   0.00  -0.01     0.03  -0.00   0.02
  38   1    -0.01   0.00  -0.00    -0.04   0.00  -0.02     0.09  -0.00   0.06
  39   1     0.00   0.00  -0.01    -0.00  -0.00   0.01     0.00   0.00  -0.02
  40   1     0.00  -0.00   0.00    -0.00   0.00  -0.00     0.01  -0.00   0.01
  41   1     0.00   0.00  -0.01    -0.00  -0.00   0.00    -0.00  -0.00   0.00
  42   1     0.00  -0.00   0.00     0.00  -0.00   0.00    -0.06   0.00  -0.04
  43   1    -0.00  -0.00   0.01     0.00   0.00  -0.01     0.00  -0.00   0.00
  44   1    -0.00   0.00   0.00     0.00  -0.00  -0.00    -0.02   0.03   0.01
                    121                    122                    123
                        a                      a                      a 
 Frequencies --  3026.7418              3027.5275              3030.6974
 Red. masses --     1.9495                 1.9487                 1.8147
 Frc consts  --     0.0000                 0.0000                 0.0000
 IR Inten    --    41.6447                87.3429                63.4675
 Raman Activ --     0.0000                 0.0000                 0.0000
 Depolar     --     0.0000                 0.0000                 0.0000
 Atom AN      X      Y      Z        X      Y      Z        X      Y      Z
   1   6     0.01  -0.07   0.27    -0.02  -0.02   0.05    -0.24  -0.10  -0.04
   2   6     0.00  -0.01   0.05    -0.00  -0.00   0.01    -0.03  -0.00  -0.00
   3   6    -0.00  -0.00   0.02    -0.00  -0.00   0.00    -0.01  -0.00   0.00
   4   6     0.00  -0.00   0.01    -0.00  -0.00   0.00    -0.00  -0.00  -0.00
   5   6     0.00   0.00   0.00     0.00   0.00   0.00    -0.00   0.00  -0.00
   6   6    -0.00   0.00   0.01    -0.00   0.00   0.00    -0.00   0.00   0.00
   7   6    -0.00   0.00   0.00    -0.00   0.00   0.00    -0.00   0.00   0.00
   8   6     0.00   0.00   0.00     0.00   0.00   0.00     0.00   0.00  -0.00
   9   6     0.00   0.00   0.00     0.00   0.01   0.00    -0.00  -0.00  -0.00
  10   6     0.00   0.00   0.00     0.00   0.00   0.00     0.00   0.00  -0.00
  11   6    -0.00   0.00  -0.00     0.00  -0.00   0.01     0.00   0.00  -0.00
  12   6    -0.00   0.00  -0.00     0.00  -0.00   0.01     0.00   0.00  -0.00
  13   6    -0.00   0.00  -0.01     0.01  -0.00   0.04     0.00   0.00  -0.00
  14   6    -0.02   0.01  -0.06     0.05  -0.01   0.28    -0.01   0.02  -0.02
  15   1     0.32   0.16  -0.68     0.08   0.04  -0.18     0.14   0.07  -0.39
  16   1     0.04   0.06   0.05     0.01   0.03   0.01     0.20   0.38   0.02
  17   1    -0.39   0.04  -0.32    -0.03   0.00  -0.02     0.52  -0.09   0.51
  18   1    -0.05   0.00  -0.05    -0.01   0.00  -0.00     0.07  -0.01   0.07
  19   1     0.04   0.02  -0.09     0.01   0.01  -0.03     0.02   0.01  -0.05
  20   1     0.02   0.01  -0.04     0.01   0.00  -0.02     0.02   0.01  -0.04
  21   1    -0.01   0.00  -0.01    -0.00   0.00  -0.00     0.04  -0.00   0.04
  22   1    -0.01   0.00  -0.01    -0.00   0.00  -0.00     0.01  -0.00   0.01
  23   1     0.01   0.00  -0.01     0.00   0.00  -0.01     0.00   0.00  -0.01
  24   1     0.00  -0.00  -0.00     0.00  -0.00  -0.00     0.00  -0.00  -0.00
  25   1    -0.01   0.00  -0.01    -0.00   0.00  -0.00     0.01  -0.00   0.01
  26   1     0.01  -0.02  -0.02     0.01  -0.01  -0.01     0.01  -0.01  -0.01
  27   1    -0.01   0.00  -0.00    -0.00   0.00  -0.00     0.00  -0.00   0.00
  28   1     0.00   0.00  -0.00     0.00   0.00  -0.00    -0.00  -0.00   0.00
  29   1     0.00  -0.00  -0.00     0.00  -0.00  -0.00     0.00  -0.00  -0.00
  30   1    -0.00  -0.00   0.00    -0.00  -0.00   0.00    -0.00  -0.00  -0.00
  31   1     0.00   0.00  -0.00     0.00   0.00  -0.01    -0.00  -0.00   0.00
  32   1    -0.00  -0.01   0.00    -0.02  -0.03   0.00     0.00   0.00  -0.00
  33   1     0.00   0.00  -0.00     0.00   0.00  -0.01    -0.00  -0.00   0.00
  34   1     0.00   0.00  -0.00     0.00   0.00  -0.01    -0.00  -0.00   0.00
  35   1    -0.00  -0.00   0.00    -0.00  -0.00   0.00    -0.00  -0.00   0.00
  36   1     0.00  -0.00  -0.00     0.00   0.00  -0.02    -0.00  -0.00   0.00
  37   1     0.00   0.00   0.00    -0.01   0.00  -0.00    -0.00   0.00  -0.00
  38   1     0.00  -0.00   0.00    -0.03   0.00  -0.01    -0.00   0.00  -0.00
  39   1    -0.00  -0.00   0.00     0.01   0.00  -0.04    -0.00  -0.00   0.01
  40   1     0.01  -0.00   0.01    -0.06   0.00  -0.04     0.00  -0.00   0.00
  41   1    -0.00  -0.00   0.01     0.03   0.01  -0.10    -0.00  -0.00   0.01
  42   1     0.12  -0.00   0.08    -0.45   0.01  -0.28     0.03   0.00   0.02
  43   1    -0.04  -0.01   0.13     0.22   0.08  -0.71    -0.03  -0.01   0.08
  44   1    -0.00  -0.00  -0.01     0.06  -0.06   0.02     0.05  -0.06  -0.03
                    124                    125                    126
                        a                      a                      a 
 Frequencies --  3030.9479              3037.1569              3037.7284
 Red. masses --     1.8408                 1.3921                 1.3513
 Frc consts  --     0.0000                 0.0000                 0.0000
 IR Inten    --    55.9531                61.9904                 8.2429
 Raman Activ --     0.0000                 0.0000                 0.0000
 Depolar     --     0.0000                 0.0000                 0.0000
 Atom AN      X      Y      Z        X      Y      Z        X      Y      Z
   1   6    -0.00   0.01   0.01    -0.03  -0.09  -0.01     0.01   0.16   0.02
   2   6    -0.00   0.00   0.00    -0.00  -0.00  -0.00     0.00   0.01  -0.00
   3   6    -0.00  -0.00   0.00    -0.00  -0.00   0.00    -0.00  -0.00  -0.00
   4   6    -0.00   0.00  -0.00    -0.00  -0.00   0.00     0.00   0.00  -0.00
   5   6    -0.00   0.00   0.00    -0.00   0.00   0.00    -0.00  -0.00  -0.00
   6   6    -0.00   0.00   0.00    -0.00   0.00   0.00     0.00  -0.00  -0.00
   7   6    -0.00   0.00   0.00    -0.00   0.00  -0.00     0.00  -0.00   0.00
   8   6     0.00   0.00  -0.00     0.00   0.00   0.00    -0.00  -0.00   0.00
   9   6     0.01   0.01  -0.00     0.00   0.00  -0.00    -0.00  -0.00  -0.00
  10   6     0.00   0.00  -0.00     0.00   0.00   0.00    -0.00  -0.00   0.00
  11   6     0.01   0.00  -0.00     0.00   0.00  -0.00    -0.00  -0.00  -0.00
  12   6     0.02   0.00   0.00    -0.00   0.00   0.00    -0.00   0.00  -0.00
  13   6     0.03  -0.00  -0.00     0.00  -0.01  -0.00    -0.00  -0.00  -0.00
  14   6     0.25  -0.09  -0.05     0.03  -0.16  -0.02    -0.01  -0.07  -0.01
  15   1     0.03   0.02  -0.06    -0.05  -0.03   0.09     0.12   0.08  -0.26
  16   1    -0.03  -0.05  -0.00     0.21   0.35   0.02    -0.39  -0.64  -0.04
  17   1     0.02  -0.00   0.02    -0.07  -0.00  -0.06     0.26  -0.01   0.24
  18   1     0.00  -0.00   0.00     0.01  -0.00   0.01    -0.00   0.00  -0.00
  19   1     0.00   0.00  -0.01     0.00   0.00  -0.01    -0.01  -0.00   0.01
  20   1     0.00   0.00  -0.01     0.00   0.00  -0.01     0.00   0.00  -0.00
  21   1     0.00  -0.00   0.00     0.00  -0.00   0.01     0.00  -0.00   0.00
  22   1     0.00  -0.00   0.00     0.00  -0.00   0.00    -0.00   0.00  -0.00
  23   1     0.00   0.00  -0.00     0.00   0.00  -0.00    -0.00  -0.00   0.00
  24   1     0.00  -0.00  -0.00     0.00  -0.00  -0.00    -0.00   0.00   0.00
  25   1     0.00  -0.00   0.00     0.00  -0.00   0.00     0.00  -0.00   0.00
  26   1     0.01  -0.01  -0.01     0.00  -0.00  -0.00    -0.00   0.00   0.00
  27   1     0.00  -0.00   0.00     0.00  -0.00   0.00    -0.00   0.00  -0.00
  28   1    -0.00  -0.00   0.00    -0.00  -0.00   0.00     0.00   0.00  -0.00
  29   1     0.00  -0.00  -0.00     0.00  -0.00  -0.00    -0.00   0.00   0.00
  30   1    -0.00  -0.01   0.00    -0.00  -0.00   0.00     0.00   0.00  -0.00
  31   1    -0.00  -0.00   0.00     0.00   0.00  -0.00    -0.00  -0.00  -0.00
  32   1    -0.03  -0.04   0.00    -0.01  -0.01   0.00     0.01   0.01  -0.00
  33   1     0.00   0.00  -0.00     0.00   0.00   0.00    -0.00  -0.00   0.00
  34   1    -0.00  -0.00   0.01     0.00   0.00  -0.00     0.00   0.00  -0.00
  35   1    -0.01  -0.01   0.00    -0.00  -0.00   0.00     0.00   0.00  -0.00
  36   1    -0.00  -0.00   0.01    -0.00  -0.00   0.00    -0.00   0.00   0.00
  37   1    -0.02   0.00  -0.01    -0.00   0.00  -0.00     0.00  -0.00   0.00
  38   1    -0.06   0.00  -0.04    -0.00   0.00  -0.00     0.01  -0.00   0.01
  39   1    -0.01  -0.00   0.04    -0.00   0.00   0.00     0.00   0.00  -0.01
  40   1    -0.08   0.01  -0.06    -0.01  -0.00  -0.01     0.00  -0.00   0.00
  41   1    -0.01  -0.01   0.06    -0.00  -0.00   0.01    -0.00  -0.00   0.00
  42   1    -0.53   0.00  -0.41     0.27  -0.03   0.18     0.19  -0.01   0.13
  43   1    -0.09  -0.07   0.44     0.09   0.02  -0.31     0.05   0.01  -0.17
  44   1    -0.27   0.39   0.14    -0.44   0.58   0.21    -0.19   0.25   0.09
