44
 energy: -45.302352072779 gnorm: 0.034049380944 xtb: 6.6.1 (8d0f1dd)
C            1.96100400000000        3.43995100000000        0.49403400000000
C            2.86143200000000        2.30950500000000        0.02040200000000
C            2.13003100000000        0.96913000000000       -0.05940200000000
C            3.02583700000000       -0.17859300000000       -0.53281100000000
C            2.26975700000000       -1.50001700000000       -0.70416800000000
C            1.82304900000000       -2.12353300000000        0.62008200000000
C            0.90635600000000       -3.34047700000000        0.45113000000000
C           -0.38019000000000       -3.04652200000000       -0.32981000000000
C           -1.19002200000000       -1.88500400000000        0.24691700000000
C           -2.42173700000000       -1.53450100000000       -0.58714200000000
C           -3.17435100000000       -0.30591700000000       -0.06751400000000
C           -2.35001900000000        0.98246000000000       -0.13112200000000
C           -3.13933700000000        2.22441100000000        0.28407700000000
C           -2.29776000000000        3.49063800000000        0.24496400000000
H            1.55746300000000        3.23401200000000        1.48769800000000
H            2.49123200000000        4.39409600000000        0.54616700000000
H            1.10981800000000        3.57406900000000       -0.17674400000000
H            3.72893100000000        2.21063000000000        0.68702400000000
H            3.28625100000000        2.55083800000000       -0.96355400000000
H            1.69950200000000        0.73253100000000        0.92093500000000
H            1.26767900000000        1.06301400000000       -0.73181900000000
H            3.85611300000000       -0.31557800000000        0.17110200000000
H            3.49814800000000        0.10883200000000       -1.48183500000000
H            2.88322500000000       -2.22639500000000       -1.25368700000000
H            1.39782700000000       -1.32193400000000       -1.34413600000000
H            1.31362000000000       -1.36886100000000        1.22933000000000
H            2.71022200000000       -2.39526200000000        1.20777400000000
H            0.64159500000000       -3.73830300000000        1.43993000000000
H            1.46342700000000       -4.14654700000000       -0.04435500000000
H           -1.01148700000000       -3.94397400000000       -0.37363900000000
H           -0.13598600000000       -2.82866200000000       -1.37668200000000
H           -0.54823100000000       -1.00110200000000        0.32197500000000
H           -1.48683000000000       -2.11101300000000        1.27867700000000
H           -2.11633900000000       -1.35867100000000       -1.62639200000000
H           -3.09090000000000       -2.40417300000000       -0.62811600000000
H           -3.49816300000000       -0.48185900000000        0.96592000000000
H           -4.10171000000000       -0.16583500000000       -0.63878600000000
H           -1.46198100000000        0.89327700000000        0.50625800000000
H           -1.95814100000000        1.11884300000000       -1.14714100000000
H           -4.01761000000000        2.33186900000000       -0.36687900000000
H           -3.55005500000000        2.07367900000000        1.29171500000000
H           -1.44407700000000        3.41813700000000        0.92207400000000
H           -1.89911200000000        3.66931600000000       -0.75585000000000
H           -2.87104200000000        4.37523200000000        0.53319700000000
44
 energy: -45.305013307804 gnorm: 0.014968723120 xtb: 6.6.1 (8d0f1dd)
C            1.95984111901050        3.43142961603734        0.49178885362144
C            2.86469252103762        2.30385047681104        0.01829419521703
C            2.12627595084267        0.96895763578679       -0.05820001181810
C            3.02466787980930       -0.17721215434715       -0.52471551870401
C            2.26597466349760       -1.49354833232605       -0.70287194035149
C            1.82125949633921       -2.11835814439963        0.61960789079601
C            0.90324277164833       -3.33108608496734        0.44638970949960
C           -0.38312920852916       -3.03974158702373       -0.33262957028897
C           -1.18896840720774       -1.88028759479928        0.24984964833515
C           -2.41696192928759       -1.53041917995674       -0.58737272438159
C           -3.16785604637643       -0.30435599555681       -0.06298219339671
C           -2.34572703156460        0.98321842502620       -0.13247083314101
C           -3.14316036539729        2.21813323628972        0.28282329732778
C           -2.29717375386966        3.48202865858153        0.24295241096809
H            1.56493520906944        3.22139905422928        1.48590592953364
H            2.50118225377227        4.37588968131788        0.53930461332188
H            1.11506658546426        3.56199139385838       -0.18444683054232
H            3.71861840664443        2.20730989819768        0.69792319021853
H            3.27214341902657        2.54995576136054       -0.96850564596501
H            1.71381344274740        0.73749812900097        0.92855292420910
H            1.27730645994478        1.06602277924313       -0.74418507324030
H            3.84497300431933       -0.31631481864996        0.18728479773848
H            3.47995088356000        0.10325468551716       -1.48107952548927
H            2.89514869966317       -2.21237827260994       -1.23928138475115
H            1.39402656001126       -1.30492416466974       -1.33452498640697
H            1.30840094475208       -1.36941952489937        1.22686403883890
H            2.70828301194354       -2.41708425835649        1.18966214404559
H            0.64023392858060       -3.71433512714738        1.43863323068534
H            1.45335752524719       -4.12981533673497       -0.06323329746297
H           -1.00425030404150       -3.94221796985792       -0.35039536858249
H           -0.13561726116480       -2.81823175091085       -1.37527981003488
H           -0.54717647395107       -0.99990478350332        0.30483771236375
H           -1.49533621518096       -2.12143957200653        1.27332053126412
H           -2.10678722385620       -1.34563601602428       -1.62175692016680
H           -3.09507445260060       -2.39069406141408       -0.61088175656166
H           -3.47966692819072       -0.48158698373173        0.97181630833055
H           -4.08360493236115       -0.16982403278446       -0.64943755103749
H           -1.47086554335504        0.89846352481839        0.51870183104660
H           -1.97243024436933        1.11997200344432       -1.15329839463011
H           -4.00882117980266        2.33273374716371       -0.37883385414544
H           -3.53582053257916        2.07197766179720        1.29517192908143
H           -1.44950384995978        3.40437845693605        0.92380040299942
H           -1.90709470813144        3.65674984180081       -0.75976947292572
H           -2.88092914515464        4.35533807945963        0.53246507458204
44
 energy: -45.305428520650 gnorm: 0.002596785503 xtb: 6.6.1 (8d0f1dd)
C            1.95986502775128        3.42824443373738        0.49043991520981
C            2.86759538259332        2.30055749842032        0.01676217725254
C            2.12490277463020        0.96893689858213       -0.05597946509734
C            3.02503416332452       -0.17559851188940       -0.52006981363327
C            2.26527343922393       -1.49019435714689       -0.70171924584902
C            1.82272061461041       -2.11719665930790        0.61946029820079
C            0.90143792833302       -3.32657982483302        0.44282456716475
C           -0.38669725824774       -3.03652013150138       -0.33338966457867
C           -1.18810733602295       -1.87623165361137        0.25132271283860
C           -2.41535993835338       -1.52860263598174       -0.58694420763235
C           -3.16523415488378       -0.30285634113298       -0.06105695583902
C           -2.34326898251323        0.98369456836923       -0.13326159684608
C           -3.14675555661066        2.21377826363312        0.28152793945071
C           -2.29866973935220        3.47856248593124        0.24139360232842
H            1.56897296746524        3.21374060294998        1.48343014804665
H            2.50604415468514        4.36798682393216        0.53534788470671
H            1.11836698429950        3.55365635921564       -0.18808064407675
H            3.71416568688547        2.20434576284811        0.70125032681857
H            3.26701804657708        2.54737012338704       -0.97016588947507
H            1.71878097491239        0.74267337715123        0.93214864075837
H            1.28393644122022        1.06718747876638       -0.74807088905740
H            3.83754463111747       -0.31575411134488        0.19721900203144
H            3.47456878242736        0.10212116440929       -1.47739555827756
H            2.90065077398303       -2.20375916886287       -1.23294507551270
H            1.39430464029980       -1.29440265588293       -1.32836673841752
H            1.31246652594041       -1.37202688063691        1.22907004630181
H            2.70952169671060       -2.43251977763335        1.17682355338940
H            0.63916503260253       -3.70244432494972        1.43559353613613
H            1.44661996222136       -4.12040889719177       -0.07496997502350
H           -1.00240157155069       -3.94027700239174       -0.33678493362458
H           -0.14112072855699       -2.81384064276273       -1.37380277443469
H           -0.54688616934373       -0.99839664849474        0.29786607047190
H           -1.49880960385141       -2.12433698748958        1.26934970134121
H           -2.10260264487033       -1.33886564824416       -1.61746505059396
H           -3.09741347128680       -2.38302218917033       -0.60326690372009
H           -3.46801156458260       -0.48050573183692        0.97405021466721
H           -4.07584437226831       -0.17134799002922       -0.65202969982958
H           -1.47415307899104        0.90465532703854        0.52222895105130
H           -1.98000928536363        1.12052445967274       -1.15534258368261
H           -4.00555428952717        2.33047903563643       -0.38421887059246
H           -3.53094730018152        2.06848111254696        1.29434437531349
H           -1.45391988155827        3.39547601395721        0.92251309339269
H           -1.91248041726028        3.64889864230776       -0.76183449057941
H           -2.88727028663760        4.34605533983364        0.53199226950114
44
 energy: -45.305456614702 gnorm: 0.000914934717 xtb: 6.6.1 (8d0f1dd)
C            1.96051625142743        3.42834955805054        0.48997962606703
C            2.86904549078091        2.30016674546256        0.01657423191655
C            2.12499959631092        0.96925765846537       -0.05524641172368
C            3.02607634008639       -0.17520440210800       -0.51759253037079
C            2.26592176646560       -1.48970720167576       -0.70177688868540
C            1.82483142961270       -2.11878601396613        0.61887848963805
C            0.90118801285047       -3.32676826847337        0.44134653937298
C           -0.38816424704617       -3.03581184350652       -0.33318014789308
C           -1.18825863642863       -1.87499095879528        0.25222821817778
C           -2.41532805489874       -1.52801055243444       -0.58676940952429
C           -3.16503205157223       -0.30225014631230       -0.06002426255961
C           -2.34338201236625        0.98426424049574       -0.13432155191150
C           -3.14887253110391        2.21295168953863        0.28062998961651
C           -2.30062972779761        3.47853781104356        0.24070110766880
H            1.57000729385764        3.21271227394872        1.48259520794803
H            2.50632924068109        4.36797687882549        0.53443963111541
H            1.11929378533681        3.55181694198769       -0.18882794065920
H            3.71505458719503        2.20389368159106        0.70102876360636
H            3.26791163883292        2.54613163946483       -0.97026684040516
H            1.71833734929413        0.74455369417627        0.93256065584907
H            1.28498194961454        1.06717724160846       -0.74788268232493
H            3.83666159226905       -0.31570755530598        0.20125846465857
H            3.47697932044134        0.10316756717586       -1.47358887745742
H            2.90102169154735       -2.20192578468850       -1.23412743899817
H            1.39484087306692       -1.29215098727416       -1.32722138531198
H            1.31802825827867       -1.37440553246132        1.23195907310071
H            2.71186194721764       -2.43839609712486        1.17235736643313
H            0.63922238631270       -3.70266526566261        1.43372409557935
H            1.44498323519963       -4.11975096711233       -0.07819651209719
H           -1.00385641418993       -3.93893893974654       -0.33352239018462
H           -0.14521025361527       -2.81423336531973       -1.37415816698292
H           -0.54681455248599       -0.99765390928897        0.29788814075781
H           -1.49886789427940       -2.12258082109909        1.26991870079407
H           -2.10241973010987       -1.33790222138745       -1.61680985778027
H           -3.09721098858161       -2.38192588595861       -0.60271792906059
H           -3.46554898438114       -0.47965486195685        0.97539168114649
H           -4.07590969151692       -0.17087643556976       -0.64972586739395
H           -1.47418749621436        0.90723146810452        0.52064109151995
H           -1.98120770863801        1.12078769458541       -1.15640430114329
H           -4.00697329813278        2.32893077086628       -0.38534709139565
H           -3.53262433506423        2.06692215905358        1.29302111515089
H           -1.45593472258343        3.39386840753728        0.92128475572390
H           -1.91497768379542        3.64783687820253       -0.76263452899601
H           -2.88924402187797        4.34550001704416        0.53173406701824
44
 energy: -45.305498016086 gnorm: 0.003620439104 xtb: 6.6.1 (8d0f1dd)
C            1.96326016609910        3.42935965991112        0.48837310147481
C            2.87334142065593        2.29988071731766        0.01654936906301
C            2.12662243814385        0.97023294096143       -0.05232202943488
C            3.02975859009439       -0.17481850012743       -0.50909571058978
C            2.26856072720947       -1.48866362338853       -0.70215326953552
C            1.83267733876950       -2.12659751767266        0.61606567105994
C            0.90086118734623       -3.32931854027540        0.43595006828674
C           -0.39251756453741       -3.03433221685991       -0.33176858104332
C           -1.18775420698747       -1.87079798976922        0.25483119310692
C           -2.41523909951879       -1.52579560927117       -0.58495698956914
C           -3.16492670902024       -0.30043620042766       -0.05650025780595
C           -2.34559418374161        0.98677061693518       -0.13785573534572
C           -3.15627972532943        2.21199483333559        0.27688030187469
C           -2.30886173982016        3.47972455977918        0.23792416294854
H            1.57339061875004        3.21202467415865        1.48046471215531
H            2.50689290182178        4.36972409919210        0.53136890961306
H            1.12231561139030        3.54766422958795       -0.19115949600441
H            3.71891309883233        2.20369199011552        0.70061393268621
H            3.27212406583671        2.54292265935311       -0.97038657642217
H            1.71604679429021        0.74993243073184        0.93438583862428
H            1.28894875295085        1.06679181885256       -0.74713314914633
H            3.83385261860282       -0.31732321641705        0.21598101257555
H            3.48876513417773        0.10619032719581       -1.45987287653532
H            2.90167755451315       -2.19660936038018       -1.24114417593487
H            1.39625015717158       -1.28576042157682       -1.32368802063080
H            1.33803877951769       -1.38428481297340        1.24175636075399
H            2.72149260974470       -2.45915918340453        1.15752066852942
H            0.64073369422458       -3.70757713730939        1.42724216683094
H            1.43996730045445       -4.12086952984962       -0.08911841928364
H           -1.01009602415525       -3.93523882155840       -0.32418731544767
H           -0.15807670016957       -2.81657845723947       -1.37529194154929
H           -0.54496463145880       -0.99454871222578        0.29916504205261
H           -1.49784780867172       -2.11558139665773        1.27267775682876
H           -2.10249935817405       -1.33496819643922       -1.61437967477449
H           -3.09572553437674       -2.37989174126551       -0.60109518429700
H           -3.45808303683833       -0.47666533406092        0.98068582851331
H           -4.07902884955240       -0.17003528316243       -0.64021984410931
H           -1.47413607023934        0.91572149549711        0.51409801782579
H           -1.98654504745545        1.12173466717194       -1.16071283108347
H           -4.01359490302187        2.32511835391858       -0.38954134415252
H           -3.54019414708618        2.06326933337826        1.28817074612539
H           -1.46367271360947        3.39146062495713        0.91687741621216
H           -1.92463074965180        3.64746527111968       -0.76581788858380
H           -2.89678375718128        4.34591349884201        0.53061703413793
44
 energy: -45.305516532435 gnorm: 0.002517600964 xtb: 6.6.1 (8d0f1dd)
C            1.96420255068700        3.42965580906141        0.48785768057791
C            2.87412960474817        2.30008112357686        0.01708715811850
C            2.12770503886844        0.97023851595724       -0.05146846607537
C            3.03081106674997       -0.17554723319246       -0.50640866060258
C            2.26923910942849       -1.48861174706710       -0.70232527712066
C            1.83490311820151       -2.13002232208736        0.61473708478747
C            0.90110542147263       -3.33097043862187        0.43411944150289
C           -0.39303322618316       -3.03417833859816       -0.33127192435145
C           -1.18673026290904       -1.86968825986031        0.25541538995735
C           -2.41474513762040       -1.52477809497270       -0.58365860476337
C           -3.16497372165636       -0.30017613244606       -0.05500885580366
C           -2.34740037653921        0.98790443933521       -0.13887411293812
C           -3.15853638992323        2.21286303181981        0.27550516457796
C           -2.31212335688902        3.48079675316383        0.23672899086621
H            1.57427803006174        3.21350984507172        1.48029173950878
H            2.50746181464680        4.37040018895075        0.53015027300643
H            1.12311202943203        3.54766655224161       -0.19171785362178
H            3.71995145469033        2.20436707057018        0.70127993012776
H            3.27337452551912        2.54254912767376       -0.97006032018463
H            1.71570917303829        0.75061490618771        0.93505960628354
H            1.29055585308364        1.06643811670344       -0.74731406797548
H            3.83287728217425       -0.31933930257191        0.22094122468671
H            3.49330450428862        0.10584803530002       -1.45562554922197
H            2.90167319291945       -2.19525559660220       -1.24431129708482
H            1.39610118730120       -1.28436892338732       -1.32250203409401
H            1.34314525492982       -1.38838856515185        1.24368374736192
H            2.72458041191649       -2.46540741477836        1.15341279074244
H            0.64229549882160       -3.71072787564678        1.42540712171178
H            1.43856880575820       -4.12276957921227       -0.09271100920767
H           -1.01190381403929       -3.93450061569620       -0.32257332264181
H           -0.16005097265458       -2.81729086664288       -1.37545482488981
H           -0.54322963544223       -0.99367357143614        0.29931560060281
H           -1.49647772243038       -2.11360611473634        1.27384752444317
H           -2.10262700393323       -1.33389357842233       -1.61345029121236
H           -3.09462840088226       -2.37967809353786       -0.59981655260624
H           -3.45619951446956       -0.47585114290762        0.98300313690698
H           -4.08072779084787       -0.17117861186008       -0.63690915276520
H           -1.47470752039965        0.91813796503234        0.51191456289583
H           -1.98959183134045        1.12208645869367       -1.16250732607866
H           -4.01607217236219        2.32530815222848       -0.39112877099038
H           -3.54296717310334        2.06383275256082        1.28679741263749
H           -1.46654878360621        3.39297922801388        0.91541867776410
H           -1.92824338843703        3.64951420181125       -0.76709280381411
H           -2.90012773306908        4.34684714548215        0.53001481897607
44
 energy: -45.305557334393 gnorm: 0.001479861019 xtb: 6.6.1 (8d0f1dd)
C            1.96806102454156        3.43049323362128        0.48573641986751
C            2.87733501435981        2.30014043051798        0.01970085104993
C            2.13207107467268        0.96948175280361       -0.04775844148684
C            3.03520902765373       -0.17923265817881       -0.49530233402146
C            2.27160223497728       -1.48878805790163       -0.70308969217240
C            1.84357224889282       -2.14416936585343        0.60938890850623
C            0.90256703396706       -3.33834940195357        0.42614401854332
C           -0.39431029812326       -3.03339143441754       -0.33003553900513
C           -1.18109885363622       -1.86492901856814        0.25790422350118
C           -2.41196996441045       -1.52053714025966       -0.57733169825444
C           -3.16493212798362       -0.29911967808312       -0.04797460703415
C           -2.35523091653926        0.99305094056370       -0.14289037986100
C           -3.16845217964585        2.21700161370693        0.26978478333936
C           -2.32645542927990        3.48618668369367        0.23127244837956
H            1.57775447786226        3.22019071008874        1.47965322756219
H            2.51096819643927        4.37214573377387        0.52444291582218
H            1.12652462827539        3.54762347427978       -0.19402544091073
H            3.72332390021151        2.20661405581754        0.70508981744928
H            3.27854026715768        2.54050751459503       -0.96795580376262
H            1.71459640157752        0.75237764160087        0.93781296666826
H            1.29775718179805        1.06442102118174       -0.74818235192441
H            3.82841294529716       -0.32874625811650        0.24151730871962
H            3.51165188677436        0.10306137643102       -1.43816608343842
H            2.90114468318960       -2.18997818343343       -1.25705406685306
H            1.39509473845709       -1.27843809952932       -1.31717037097550
H            1.36177117217330       -1.40581960051025        1.25046867865510
H            2.73656876231809       -2.49022266047201        1.13719080039167
H            0.64928118503001       -3.72405574760911        1.41731506554666
H            1.43296560400659       -4.13088736411564       -0.10833696745341
H           -1.01845390009353       -3.93104150925586       -0.31782754239214
H           -0.16593012705033       -2.81893181846245       -1.37617378640285
H           -0.53472524424137       -0.99015714613621        0.29893277005348
H           -1.48861806860612       -2.10594112083341        1.27850171249014
H           -2.10296424980737       -1.32903361019911       -1.60852945840553
H           -3.08935153097544       -2.37847227277536       -0.59290515095877
H           -3.44788532280366       -0.47233243608282        0.99334424194095
H           -4.08706418804406       -0.17759182979941       -0.62293800328347
H           -1.47750726641118        0.92899853916642        0.50275861263055
H           -2.00389644062124        1.12374037294222       -1.16991722233940
H           -4.02662186603663        2.32682554197398       -0.39766012033610
H           -3.55435504602527        2.06761424939734        1.28119756849878
H           -1.47921293618460        3.40126540730902        0.90881098477344
H           -1.94428761053640        3.65925877515492       -0.77284385850200
H           -2.91601112257700        4.35090434392714        0.52689859538439
44
 energy: -45.305570460704 gnorm: 0.001716538931 xtb: 6.6.1 (8d0f1dd)
C            1.96981097858089        3.43043160123586        0.48485548233476
C            2.87885516937298        2.29901106868838        0.02153092989812
C            2.13380626037256        0.96814018197799       -0.04605816223556
C            3.03727467490737       -0.18159463039232       -0.49061667123764
C            2.27237791190885       -1.48952980107506       -0.70331868358244
C            1.84664581727157       -2.15024378689000        0.60721634316974
C            0.90372571428598       -3.34231884701069        0.42228886151184
C           -0.39367848501169       -3.03268169767144       -0.33076071545380
C           -1.17702926665944       -1.86270867439480        0.25899883433468
C           -2.40995379957866       -1.51871211650050       -0.57349243889743
C           -3.16452438583002       -0.29852225527338       -0.04366570955904
C           -2.35899317871621        0.99589434121272       -0.14446784116866
C           -3.17358153105716        2.21932335583241        0.26746269454440
C           -2.33412159877230        3.48997574200254        0.22813679863435
H            1.57912214534901        3.22334130981845        1.47935386749854
H            2.51357242709311        4.37182674461712        0.52136242287918
H            1.12832350572394        3.54713245815168       -0.19515544655203
H            3.72396063518631        2.20636927996568        0.70818540894998
H            3.28129192401116        2.53847745512545       -0.96589651869933
H            1.71426578517235        0.75173183234574        0.93880148728260
H            1.30118280368967        1.06271904408749       -0.74853326195600
H            3.82638696211565       -0.33370024803255        0.24995724268173
H            3.51898389609893        0.10071488575291       -1.43070115427528
H            2.90021143475364       -2.18859501902201       -1.26182551439116
H            1.39462172123168       -1.27600253048576       -1.31441189760573
H            1.36693958424732       -1.41392236091970        1.25193807097923
H            2.74055049343076       -2.49901606491397        1.13145722677206
H            0.65227860961749       -3.73071497189329        1.41294128188839
H            1.43133152035813       -4.13444664634443       -0.11569689014910
H           -1.02022391689071       -3.92871103676294       -0.31869214262001
H           -0.16590875314645       -2.81775484528392       -1.37693223248101
H           -0.52965404715689       -0.98856581668049        0.29749169483435
H           -1.48204109453496       -2.10294714285293        1.28054981980082
H           -2.10307152618888       -1.32677232076109       -1.60528699323479
H           -3.08612673824663       -2.37771504369007       -0.58788313175270
H           -3.44353328270673       -0.47027108009112        0.99897324000353
H           -4.08896164286830       -0.18159772929364       -0.61591581930429
H           -1.47900191717387        0.93508002337877        0.49839125222390
H           -2.01170018520988        1.12476963325014       -1.17308315230894
H           -4.03191462863229        2.32771928194217       -0.40010355315264
H           -3.55935052056825        2.07057323213268        1.27907515521624
H           -1.48604029185861        3.40744614175741        0.90502072966603
H           -1.95309880978666        3.66478147779051       -0.77618061404768
H           -2.92557137418467        4.35332257517001        0.52448769956072
44
 energy: -45.305591011611 gnorm: 0.000644643275 xtb: 6.6.1 (8d0f1dd)
C            1.97237254053325        3.42927561392953        0.48383034105340
C            2.88134964988092        2.29529009717963        0.02508554392019
C            2.13566249703644        0.96469155195317       -0.04360205605824
C            3.04018982471227       -0.18564839469547       -0.48523517382256
C            2.27315212099740       -1.49169940395966       -0.70320296645488
C            1.84935003488042       -2.15697854775236        0.60552536016250
C            0.90594864366390       -3.34791257913197        0.41655055780854
C           -0.39105617538583       -3.03076029447033       -0.33426947699452
C           -1.16947743207160       -1.85935446393773        0.25998526172886
C           -2.40661395735430       -1.51651530633645       -0.56692448177772
C           -3.16309928795171       -0.29720521600166       -0.03614441377059
C           -2.36363913238674        1.00051948699305       -0.14607128882666
C           -3.18146049821009        2.22256533099281        0.26500117738220
C           -2.34667506387407        3.49693001305353        0.22268645877515
H            1.58065742348715        3.22664242595519        1.47873359440107
H            2.51809891240039        4.36960676573398        0.51688325348016
H            1.13161449801628        3.54469286320507       -0.19720573984022
H            3.72368705731039        2.20311838989711        0.71474169110088
H            3.28670538540253        2.53326931972573       -0.96121853467384
H            1.71355336073090        0.74853262636121        0.93988253645990
H            1.30564194493546        1.05926391095512       -0.74866043693365
H            3.82448882729662       -0.34055411041616        0.25919421374637
H            3.52678346585428        0.09667558250353       -1.42219826746757
H            2.89832632246197       -2.18898124283399       -1.26599671421089