44
 energy: -45.305735630067 gnorm: 0.000352839581 xtb: 6.6.1 (8d0f1dd)
C            2.00122443794511        3.38722150342345        0.49586884566168
C            2.93455185771420        2.25570959192144        0.08147780317349
C            2.19159287117432        0.92721832568019       -0.03221850030263
C            3.11043902824907       -0.21850681531057       -0.45484328096652
C            2.34918339562465       -1.52199659830551       -0.70382508583493
C            1.86881236650813       -2.18262131885872        0.58751025105174
C            0.90480439426079       -3.34910410822052        0.35928649051940
C           -0.38233199950324       -2.98236222249762       -0.38597671478093
C           -1.13091287078238       -1.80501875854890        0.23461472236626
C           -2.42684432222581       -1.49758856469781       -0.51191219793178
C           -3.17304701434961       -0.28790684375303        0.05382646991524
C           -2.42282201519669        1.02900873528182       -0.13984324937432
C           -3.25773177316508        2.23531123790196        0.28329702356704
C           -2.48325706064970        3.53845026260505        0.12414677624038
H            1.55560691668155        3.17769173831559        1.46631564704374
H            2.54283090302660        4.32778469148787        0.56393020683844
H            1.19927738114866        3.50447298684240       -0.23022971900463
H            3.73838567000484        2.15912435076345        0.81499840743101
H            3.39255589409197        2.49717697509734       -0.88055756071401
H            1.73317611888660        0.69974701085425        0.93228290275282
H            1.38793555155688        1.03094285509502       -0.76620112163699
H            3.87227409558366       -0.37867567821038        0.31159918485648
H            3.62439839982815        0.07112435588255       -1.37489404135728
H            2.99464747105518       -2.22270935141563       -1.23899449969215
H            1.49759038102763       -1.30183858413181       -1.34847074020579
H            1.38238024817032       -1.44256072853778        1.22231105013100
H            2.73793974949631       -2.55443829198368        1.13677968582366
H            0.63888336973876       -3.76431371401511        1.33483844082670
H            1.41792788532941       -4.13349130678258       -0.20278588094142
H           -1.03535390995526       -3.85903186188456       -0.39324507832853
H           -0.15083806920873       -2.74858795639585       -1.42712179358118
H           -0.49309972228021       -0.92320722727110        0.20562391601085
H           -1.35688066894370       -2.02666463072876        1.28034848456977
H           -2.19843662552371       -1.31422744012323       -1.56509175081116
H           -3.08206742189235       -2.37127186542812       -0.46602158488620
H           -3.36177921004485       -0.44414569453156        1.11868610978877
H           -4.14333206416487       -0.21322418967772       -0.44414999402874
H           -1.50126716551280        1.02126911998636        0.44469917809103
H           -2.14886394044727        1.13500635524651       -1.19258373721614
H           -4.16746144080217        2.27690604855777       -0.32050111137387
H           -3.55941647504622        2.11739596555888        1.32675297556759
H           -1.58926149976628        3.52904829830782        0.74441496811088
H           -2.17883489503499        3.67613741088898       -0.91147839430858
H           -3.09510881060418        4.38848526586350        0.41712591582343
