 Entering Gaussian System
 *********************************************
 Gaussian 98:
 frequency output generated by the xtb code
 *********************************************
                         Standard orientation:
 --------------------------------------------------------------------
  Center     Atomic     Atomic              Coordinates (Angstroms)
  Number     Number      Type              X           Y           Z
 --------------------------------------------------------------------
    1          6             0       -1.893273    0.658901   -0.342246
    2          6             0       -1.111133   -0.181221    0.660437
    3          6             0        0.000020   -1.013681    0.018303
    4          6             0        1.110897   -0.204669   -0.653583
    5          6             0        1.893561    0.670454    0.318267
    6          1             0       -2.293224    0.030735   -1.135760
    7          1             0       -1.262498    1.421497   -0.791740
    8          1             0       -2.724771    1.157519    0.151573
    9          1             0       -1.801524   -0.866753    1.158795
   10          1             0       -0.689359    0.468332    1.429125
   11          1             0       -0.447709   -1.673989   -0.729215
   12          1             0        0.447887   -1.646464    0.789184
   13          1             0        0.688756    0.417185   -1.444649
   14          1             0        1.801030   -0.907511   -1.127588
   15          1             0        2.723650    1.152730   -0.193817
   16          1             0        2.295554    0.070527    1.132345
   17          1             0        1.262528    1.447343    0.742204
 --------------------------------------------------------------------
     1 basis functions        1 primitive gaussians
     1 alpha electrons        1 beta electrons
 
 Harmonic frequencies (cm**-1), IR intensities (KM/Mole),
 Raman scattering activities (A**4/amu), Raman depolarization ratios,
 reduced masses (AMU), force constants (mDyne/A) and normal coordinates:
                      1                      2                      3
                        a                      a                      a 
 Frequencies --    54.0214               136.9774               218.2952
 Red. masses --    99.0000                99.0000                99.0000
 Frc consts  --    99.0000                99.0000                99.0000
 IR Inten    --    99.0000                99.0000                99.0000
 Raman Activ --     0.0000                 0.0000                 0.0000
 Depolar     --     0.0000                 0.0000                 0.0000
 Atom AN      X      Y      Z        X      Y      Z        X      Y      Z
   1   6     0.39   0.28   0.11     0.16   0.06  -0.13    -0.10  -0.05   0.04
   2   6     0.01  -0.20   0.01    -0.19  -0.11   0.01    -0.01   0.03   0.04
   3   6    -0.00  -0.20   0.00     0.04   0.00   0.26    -0.00   0.08  -0.00
   4   6    -0.01  -0.20  -0.01    -0.19   0.11   0.01     0.01   0.03  -0.04
   5   6    -0.39   0.27  -0.12     0.16  -0.06  -0.13     0.10  -0.05  -0.04
   6   1     0.15   0.18  -0.07     0.30   0.08  -0.22     0.31   0.02  -0.19
   7   1     0.18   0.11   0.17     0.04   0.17   0.22    -0.14   0.24   0.28
   8   1     0.09   0.06   0.02    -0.13  -0.17  -0.14    -0.27  -0.34  -0.07
   9   1    -0.07  -0.07  -0.10    -0.10  -0.06  -0.10     0.02  -0.01   0.01
  10   1    -0.01  -0.15   0.09    -0.14  -0.07   0.08    -0.01   0.02   0.01
  11   1     0.00  -0.06  -0.00     0.06  -0.08   0.12    -0.01   0.02   0.01
  12   1    -0.00  -0.06   0.00     0.06   0.09   0.12     0.01   0.02  -0.01
  13   1     0.01  -0.15  -0.09    -0.14   0.07   0.08     0.01   0.02  -0.01
  14   1     0.07  -0.06   0.11    -0.10   0.06  -0.11    -0.02  -0.01  -0.01
  15   1    -0.09   0.06  -0.02    -0.13   0.16  -0.14     0.27  -0.33   0.08
  16   1    -0.15   0.18   0.06     0.30  -0.09  -0.22    -0.31   0.03   0.19
  17   1    -0.18   0.10  -0.17     0.04  -0.16   0.22     0.14   0.23  -0.29
                      4                      5                      6
                        a                      a                      a 
 Frequencies --   277.8526               270.9182               381.8636
 Red. masses --    99.0000                99.0000                99.0000
 Frc consts  --    99.0000                99.0000                99.0000
 IR Inten    --    99.0000                99.0000                99.0000
 Raman Activ --     0.0000                 0.0000                 0.0000
 Depolar     --     0.0000                 0.0000                 0.0000
 Atom AN      X      Y      Z        X      Y      Z        X      Y      Z
   1   6     0.17  -0.01  -0.07     0.35  -0.16  -0.13     0.22  -0.20  -0.07
   2   6    -0.21  -0.25   0.01     0.31   0.18   0.16    -0.07  -0.04   0.25
   3   6     0.05   0.00   0.15    -0.00  -0.06   0.00    -0.36  -0.00  -0.21
   4   6    -0.21   0.26  -0.00    -0.31   0.17  -0.17    -0.07   0.05   0.25
   5   6     0.16   0.00  -0.07    -0.35  -0.15   0.14     0.22   0.20  -0.07
   6   1    -0.18   0.01   0.09     0.17  -0.13  -0.01     0.15  -0.11  -0.02
   7   1     0.19  -0.20  -0.16     0.08  -0.05  -0.06     0.12  -0.10  -0.01
   8   1     0.22   0.26   0.00     0.05  -0.05  -0.13     0.01  -0.01  -0.16
   9   1    -0.11  -0.11  -0.11     0.09   0.14   0.16    -0.03   0.02   0.10
  10   1    -0.13  -0.12   0.08     0.16   0.12  -0.05     0.04  -0.01   0.04
  11   1     0.08  -0.07   0.07    -0.07  -0.01   0.04    -0.18   0.24  -0.23
  12   1     0.08   0.07   0.07     0.07  -0.01  -0.04    -0.18  -0.25  -0.22
  13   1    -0.13   0.12   0.08    -0.16   0.12   0.05     0.04   0.01   0.04
  14   1    -0.11   0.11  -0.11    -0.09   0.13  -0.16    -0.03  -0.02   0.10
  15   1     0.22  -0.26   0.01    -0.05  -0.04   0.13     0.01   0.01  -0.16
  16   1    -0.18  -0.01   0.09    -0.17  -0.12   0.02     0.15   0.11  -0.02
  17   1     0.19   0.20  -0.17    -0.09  -0.05   0.07     0.12   0.10  -0.01
                      7                      8                      9
                        a                      a                      a 
 Frequencies --   463.3875               764.0764               815.4937
 Red. masses --    99.0000                99.0000                99.0000
 Frc consts  --    99.0000                99.0000                99.0000
 IR Inten    --    99.0000                99.0000                99.0000
 Raman Activ --     0.0000                 0.0000                 0.0000
 Depolar     --     0.0000                 0.0000                 0.0000
 Atom AN      X      Y      Z        X      Y      Z        X      Y      Z
   1   6    -0.10   0.15  -0.03    -0.02   0.07  -0.06    -0.13   0.04  -0.03
   2   6     0.22   0.01  -0.32     0.11   0.16   0.05    -0.28  -0.06   0.19
   3   6     0.00  -0.48   0.01     0.17   0.00   0.14    -0.00  -0.20   0.00
   4   6    -0.22   0.03   0.32     0.11  -0.16   0.06     0.28  -0.07  -0.18
   5   6     0.10   0.15   0.02    -0.02  -0.07  -0.06     0.13   0.04   0.03
   6   1    -0.09   0.10  -0.02    -0.01  -0.13   0.10     0.01   0.14  -0.13
   7   1    -0.12   0.13   0.00    -0.18   0.07  -0.18     0.20  -0.08   0.16
   8   1    -0.00  -0.05   0.13    -0.04  -0.06   0.01    -0.02   0.16  -0.14
   9   1     0.04   0.14   0.06    -0.07  -0.10  -0.32     0.02   0.10   0.34
  10   1     0.21   0.05  -0.20    -0.21  -0.10   0.27     0.06   0.16  -0.17
  11   1     0.06  -0.13  -0.04    -0.10   0.25  -0.10     0.00  -0.06   0.00
  12   1    -0.05  -0.13   0.04    -0.10  -0.26  -0.09    -0.00  -0.06   0.00
  13   1    -0.21   0.05   0.20    -0.21   0.11   0.26    -0.06   0.17   0.17
  14   1    -0.04   0.14  -0.07    -0.07   0.09  -0.32    -0.02   0.09  -0.34
  15   1     0.00  -0.05  -0.13    -0.04   0.06   0.01     0.02   0.17   0.13
  16   1     0.09   0.10   0.02    -0.01   0.13   0.10    -0.01   0.15   0.13
  17   1     0.12   0.13  -0.01    -0.18  -0.07  -0.17    -0.20  -0.09  -0.15
                     10                     11                     12
                        a                      a                      a 
 Frequencies --  1504.0725              1507.6129              1514.4611
 Red. masses --    99.0000                99.0000                99.0000
 Frc consts  --    99.0000                99.0000                99.0000
 IR Inten    --    99.0000                99.0000                99.0000
 Raman Activ --     0.0000                 0.0000                 0.0000
 Depolar     --     0.0000                 0.0000                 0.0000
 Atom AN      X      Y      Z        X      Y      Z        X      Y      Z
   1   6    -0.12  -0.01   0.09    -0.12  -0.05   0.06     0.03   0.11   0.07
   2   6    -0.04   0.01   0.05    -0.04   0.00   0.01     0.02   0.03  -0.07
   3   6     0.02  -0.00  -0.01    -0.00  -0.08   0.00     0.00  -0.00  -0.02
   4   6    -0.04  -0.00   0.05     0.04   0.00  -0.01     0.02  -0.03  -0.07
   5   6    -0.12   0.01   0.09     0.12  -0.05  -0.06     0.03  -0.11   0.07
   6   1     0.41   0.09  -0.27     0.41   0.03  -0.24    -0.10   0.18  -0.08
   7   1    -0.08  -0.13  -0.32    -0.15  -0.02  -0.23     0.19  -0.28  -0.22
   8   1     0.17   0.07   0.24     0.23   0.20   0.21    -0.20  -0.35   0.02
   9   1    -0.00  -0.05  -0.06     0.02  -0.02   0.02     0.04   0.09   0.18
  10   1     0.05   0.04  -0.06     0.01  -0.01   0.00    -0.12  -0.11   0.16
  11   1    -0.01   0.00   0.00    -0.06   0.14  -0.09     0.01  -0.01  -0.01
  12   1    -0.01   0.00   0.00     0.06   0.14   0.09     0.01   0.01  -0.01
  13   1     0.05  -0.04  -0.05    -0.01  -0.01  -0.00    -0.11   0.11   0.16
  14   1    -0.00   0.05  -0.06    -0.02  -0.02  -0.02     0.04  -0.08   0.18
  15   1     0.17  -0.06   0.24    -0.23   0.19  -0.22    -0.21   0.36   0.01
  16   1     0.40  -0.10  -0.27    -0.41   0.04   0.24    -0.10  -0.18  -0.07
  17   1    -0.08   0.12  -0.32     0.15  -0.01   0.23     0.19   0.28  -0.23
                     13                     14                     15
                        a                      a                      a 
 Frequencies --   887.3183               889.0235              1518.3055
 Red. masses --    99.0000                99.0000                99.0000
 Frc consts  --    99.0000                99.0000                99.0000
 IR Inten    --    99.0000                99.0000                99.0000
 Raman Activ --     0.0000                 0.0000                 0.0000
 Depolar     --     0.0000                 0.0000                 0.0000
 Atom AN      X      Y      Z        X      Y      Z        X      Y      Z
   1   6     0.11  -0.21   0.04     0.11   0.01   0.15    -0.01   0.11   0.07
   2   6     0.08  -0.10  -0.24     0.01   0.08  -0.04    -0.03   0.03   0.12
   3   6     0.00   0.44  -0.01    -0.28  -0.00  -0.28     0.00  -0.02   0.00
   4   6    -0.08  -0.09   0.24     0.01  -0.09  -0.04     0.03   0.02  -0.12
   5   6    -0.11  -0.21  -0.03     0.10  -0.01   0.15     0.01   0.10  -0.08
   6   1    -0.09   0.20  -0.12     0.14  -0.24   0.17     0.00   0.16  -0.12
   7   1     0.13  -0.03   0.19    -0.08  -0.02  -0.13     0.17  -0.29  -0.25
   8   1     0.14  -0.03   0.18    -0.07  -0.04  -0.09    -0.14  -0.31   0.08
   9   1     0.18  -0.08   0.07    -0.07   0.01  -0.12    -0.05  -0.11  -0.23
  10   1    -0.02   0.14  -0.17     0.12  -0.19   0.10     0.16   0.11  -0.16
  11   1     0.03   0.12  -0.02     0.04  -0.35   0.17     0.00   0.02  -0.02
  12   1    -0.03   0.12   0.02     0.04   0.35   0.16    -0.00   0.02   0.02
  13   1     0.02   0.14   0.17     0.12   0.20   0.10    -0.16   0.11   0.16
  14   1    -0.17  -0.08  -0.07    -0.07  -0.02  -0.12     0.05  -0.10   0.23
  15   1    -0.14  -0.03  -0.17    -0.07   0.04  -0.09     0.14  -0.31  -0.07
  16   1     0.09   0.20   0.11     0.14   0.25   0.16    -0.00   0.17   0.12
  17   1    -0.13  -0.04  -0.18    -0.08   0.01  -0.13    -0.17  -0.28   0.26
                     16                     17                     18
                        a                      a                      a 
 Frequencies --  1494.5168              1487.2478              1498.0405
 Red. masses --    99.0000                99.0000                99.0000
 Frc consts  --    99.0000                99.0000                99.0000
 IR Inten    --    99.0000                99.0000                99.0000
 Raman Activ --     0.0000                 0.0000                 0.0000
 Depolar     --     0.0000                 0.0000                 0.0000
 Atom AN      X      Y      Z        X      Y      Z        X      Y      Z
   1   6     0.03   0.06   0.02     0.03   0.04   0.00     0.01   0.02   0.08
   2   6    -0.02  -0.00   0.18     0.02  -0.00  -0.08     0.02   0.03  -0.14
   3   6    -0.01   0.00   0.01     0.00  -0.24   0.00     0.00   0.14  -0.00
   4   6    -0.02   0.01   0.18    -0.02  -0.00   0.08    -0.02   0.03   0.13
   5   6     0.03  -0.06   0.02    -0.03   0.04  -0.00    -0.01   0.02  -0.08
   6   1    -0.12   0.07   0.01    -0.10   0.04   0.02     0.03   0.15  -0.13
   7   1     0.11  -0.12  -0.05     0.07  -0.07  -0.03     0.02  -0.14  -0.21
   8   1    -0.14  -0.20  -0.03    -0.10  -0.14  -0.03    -0.07  -0.13   0.02
   9   1    -0.10  -0.17  -0.38     0.05   0.09   0.19     0.08   0.15   0.30
  10   1     0.23   0.20  -0.28    -0.10  -0.11   0.15    -0.16  -0.18   0.24
  11   1    -0.00  -0.00   0.01    -0.18   0.45  -0.30     0.10  -0.26   0.17
  12   1    -0.00  -0.00   0.01     0.18   0.46   0.28    -0.10  -0.26  -0.16
  13   1     0.23  -0.21  -0.28     0.10  -0.12  -0.14     0.16  -0.19  -0.24
  14   1    -0.10   0.16  -0.38    -0.05   0.08  -0.19    -0.08   0.13  -0.30
  15   1    -0.14   0.19  -0.04     0.10  -0.14   0.04     0.07  -0.13  -0.01
  16   1    -0.12  -0.07   0.02     0.10   0.04  -0.02    -0.02   0.16   0.12
  17   1     0.11   0.11  -0.05    -0.07  -0.07   0.03    -0.02  -0.14   0.21
                     19                     20                     21
                        a                      a                      a 
 Frequencies --  1147.5144              1043.5021              1148.5380
 Red. masses --    99.0000                99.0000                99.0000
 Frc consts  --    99.0000                99.0000                99.0000
 IR Inten    --    99.0000                99.0000                99.0000
 Raman Activ --     0.0000                 0.0000                 0.0000
 Depolar     --     0.0000                 0.0000                 0.0000
 Atom AN      X      Y      Z        X      Y      Z        X      Y      Z
   1   6    -0.12   0.03  -0.26     0.04   0.19  -0.18    -0.08  -0.15   0.19
   2   6     0.29  -0.13   0.21    -0.04  -0.25   0.15     0.07   0.32  -0.16
   3   6    -0.33   0.00  -0.01     0.03   0.00   0.09    -0.00  -0.35   0.01
   4   6     0.29   0.13   0.21    -0.04   0.25   0.14    -0.07   0.32   0.15
   5   6    -0.12  -0.04  -0.26     0.04  -0.19  -0.17     0.08  -0.16  -0.18
   6   1    -0.12   0.15  -0.13    -0.05  -0.05   0.06     0.06   0.03  -0.04
   7   1    -0.02   0.05   0.01    -0.22   0.15  -0.19     0.18  -0.14   0.16
   8   1     0.04   0.02   0.04    -0.02  -0.11   0.07    -0.00   0.10  -0.06
   9   1     0.16  -0.17  -0.01    -0.18   0.19   0.16     0.00  -0.02  -0.20
  10   1     0.08  -0.14   0.14     0.22  -0.10  -0.05    -0.27   0.13   0.07
  11   1    -0.15  -0.13   0.15     0.19   0.04  -0.12    -0.10  -0.07   0.05
  12   1    -0.15   0.13   0.15     0.19  -0.05  -0.12     0.09  -0.08  -0.04
  13   1     0.07   0.14   0.14     0.22   0.10  -0.06     0.27   0.13  -0.08
  14   1     0.16   0.17  -0.02    -0.18  -0.19   0.16    -0.00  -0.01   0.20
  15   1     0.04  -0.02   0.04    -0.02   0.11   0.07     0.00   0.10   0.06
  16   1    -0.11  -0.16  -0.13    -0.05   0.05   0.06    -0.06   0.03   0.04
  17   1    -0.02  -0.05   0.01    -0.22  -0.16  -0.19    -0.18  -0.14  -0.15
                     22                     23                     24
                        a                      a                      a 
 Frequencies --   955.3235              1025.7902              1066.2178
 Red. masses --    99.0000                99.0000                99.0000
 Frc consts  --    99.0000                99.0000                99.0000
 IR Inten    --    99.0000                99.0000                99.0000
 Raman Activ --     0.0000                 0.0000                 0.0000
 Depolar     --     0.0000                 0.0000                 0.0000
 Atom AN      X      Y      Z        X      Y      Z        X      Y      Z
   1   6    -0.26   0.20  -0.03     0.03  -0.01   0.27     0.26  -0.14   0.10
   2   6    -0.02   0.01   0.21    -0.09   0.03  -0.24    -0.33   0.14  -0.01
   3   6     0.34  -0.00  -0.19    -0.00   0.12  -0.00    -0.00  -0.09   0.00
   4   6    -0.02  -0.00   0.21     0.09   0.03   0.24     0.33   0.14   0.01
   5   6    -0.26  -0.21  -0.02    -0.03  -0.02  -0.27    -0.26  -0.15  -0.09
   6   1     0.11  -0.06  -0.01     0.19  -0.19   0.13    -0.04  -0.03   0.08
   7   1     0.11  -0.09  -0.02     0.09  -0.11  -0.00    -0.11   0.08  -0.02
   8   1    -0.16   0.21  -0.33    -0.09   0.07  -0.19     0.10  -0.18   0.23
   9   1     0.10  -0.09   0.07     0.02   0.03   0.02    -0.25   0.23   0.03
  10   1     0.04  -0.04   0.06     0.20  -0.11  -0.09    -0.08   0.11  -0.07
  11   1     0.15  -0.02  -0.07     0.31   0.03  -0.18     0.07  -0.02  -0.04
  12   1     0.15   0.02  -0.07    -0.31   0.04   0.18    -0.07  -0.02   0.04
  13   1     0.04   0.04   0.06    -0.20  -0.11   0.09     0.08   0.11   0.07
  14   1     0.10   0.09   0.06    -0.02   0.03  -0.02     0.25   0.23  -0.04
  15   1    -0.16  -0.22  -0.32     0.09   0.08   0.19    -0.10  -0.18  -0.22
  16   1     0.11   0.06  -0.02    -0.19  -0.20  -0.12     0.04  -0.04  -0.08
  17   1     0.11   0.09  -0.02    -0.09  -0.11   0.01     0.11   0.08   0.01
                     25                     26                     27
                        a                      a                      a 
 Frequencies --  1237.9191              1170.0208              1254.4759
 Red. masses --    99.0000                99.0000                99.0000
 Frc consts  --    99.0000                99.0000                99.0000
 IR Inten    --    99.0000                99.0000                99.0000
 Raman Activ --     0.0000                 0.0000                 0.0000
 Depolar     --     0.0000                 0.0000                 0.0000
 Atom AN      X      Y      Z        X      Y      Z        X      Y      Z
   1   6     0.09   0.17   0.14    -0.09   0.09   0.11     0.15   0.19   0.01
   2   6    -0.07  -0.19  -0.18     0.13  -0.21  -0.28    -0.09  -0.16   0.00
   3   6    -0.00   0.04  -0.00    -0.15   0.01   0.47    -0.01  -0.00  -0.07
   4   6     0.07  -0.18   0.18     0.13   0.20  -0.29    -0.09   0.16  -0.00
   5   6    -0.09   0.17  -0.15    -0.09  -0.09   0.11     0.15  -0.18   0.02
   6   1     0.12  -0.16   0.14     0.12  -0.10   0.04     0.04  -0.13   0.13
   7   1    -0.06   0.00  -0.14     0.06  -0.08  -0.03    -0.13   0.08  -0.17
   8   1    -0.08  -0.03  -0.08    -0.10   0.08  -0.16    -0.04  -0.07  -0.01
   9   1     0.09  -0.05   0.09     0.03  -0.00  -0.01     0.29  -0.24   0.16
  10   1    -0.17   0.22  -0.19     0.19  -0.13  -0.09    -0.21   0.23  -0.13
  11   1    -0.32   0.00   0.19    -0.18   0.18   0.04    -0.14  -0.02   0.08
  12   1     0.32  -0.00  -0.19    -0.18  -0.18   0.05    -0.14   0.02   0.08
  13   1     0.17   0.23   0.18     0.19   0.13  -0.10    -0.21  -0.24  -0.12
  14   1    -0.09  -0.06  -0.09     0.03   0.00  -0.01     0.29   0.25   0.15
  15   1     0.08  -0.02   0.08    -0.10  -0.08  -0.16    -0.04   0.07  -0.02
  16   1    -0.12  -0.17  -0.14     0.12   0.10   0.04     0.04   0.13   0.13
  17   1     0.06   0.01   0.14     0.06   0.08  -0.03    -0.13  -0.09  -0.17
                     28                     29                     30
                        a                      a                      a 
 Frequencies --  1287.1414              1364.5158              1344.9158
 Red. masses --    99.0000                99.0000                99.0000
 Frc consts  --    99.0000                99.0000                99.0000
 IR Inten    --    99.0000                99.0000                99.0000
 Raman Activ --     0.0000                 0.0000                 0.0000
 Depolar     --     0.0000                 0.0000                 0.0000
 Atom AN      X      Y      Z        X      Y      Z        X      Y      Z
   1   6    -0.09  -0.09   0.05    -0.03   0.04   0.01     0.05  -0.01  -0.09
   2   6     0.01  -0.04  -0.12     0.14   0.02  -0.04    -0.28   0.23  -0.06
   3   6    -0.00   0.19  -0.00    -0.49   0.00   0.22     0.04   0.00   0.15
   4   6    -0.01  -0.04   0.12     0.14  -0.02  -0.04    -0.28  -0.24  -0.05
   5   6     0.09  -0.09  -0.04    -0.03  -0.04   0.02     0.05   0.01  -0.09
   6   1     0.01   0.04  -0.05     0.05  -0.04   0.02    -0.02  -0.05   0.03
   7   1     0.08  -0.06   0.08     0.03  -0.02   0.01     0.03   0.02   0.05
   8   1    -0.00   0.05  -0.04     0.00   0.01   0.00     0.06  -0.08   0.13
   9   1    -0.30   0.26  -0.07     0.10  -0.09  -0.06     0.29  -0.25   0.05
  10   1     0.25  -0.20  -0.01    -0.16   0.12  -0.00     0.29  -0.24   0.04
  11   1    -0.34   0.06   0.20     0.44  -0.03  -0.25     0.08   0.07  -0.07
  12   1     0.34   0.05  -0.20     0.44   0.03  -0.25     0.08  -0.08  -0.07
  13   1    -0.25  -0.20   0.02    -0.16  -0.12   0.00     0.29   0.24   0.03
  14   1     0.30   0.26   0.06     0.09   0.09  -0.06     0.29   0.25   0.04
  15   1     0.00   0.05   0.04     0.00  -0.01   0.00     0.06   0.09   0.13
  16   1    -0.01   0.04   0.05     0.05   0.04   0.02    -0.02   0.05   0.03
  17   1    -0.08  -0.07  -0.08     0.03   0.02   0.00     0.03  -0.01   0.05
                     31                     32                     33
                        a                      a                      a 
 Frequencies --  1360.2523              1415.3431              1416.5322
 Red. masses --    99.0000                99.0000                99.0000
 Frc consts  --    99.0000                99.0000                99.0000
 IR Inten    --    99.0000                99.0000                99.0000
 Raman Activ --     0.0000                 0.0000                 0.0000
 Depolar     --     0.0000                 0.0000                 0.0000
 Atom AN      X      Y      Z        X      Y      Z        X      Y      Z
   1   6     0.06  -0.01  -0.07     0.17  -0.17   0.19     0.16  -0.17   0.19
   2   6    -0.29   0.25  -0.08    -0.06   0.05   0.01    -0.04   0.05  -0.03
   3   6     0.00  -0.11   0.00    -0.00  -0.04   0.00    -0.04   0.00   0.06
   4   6     0.29   0.25   0.07     0.06   0.05  -0.01    -0.04  -0.05  -0.03
   5   6    -0.06  -0.01   0.07    -0.17  -0.18  -0.18     0.16   0.18   0.19
   6   1    -0.02  -0.06   0.05    -0.17   0.29  -0.13    -0.15   0.30  -0.15
   7   1     0.03   0.02   0.06    -0.28   0.12  -0.17    -0.28   0.11  -0.19
   8   1     0.05  -0.07   0.11    -0.09   0.14  -0.32    -0.08   0.14  -0.31
   9   1     0.29  -0.25   0.05     0.04  -0.08  -0.06     0.06  -0.05   0.00
  10   1     0.24  -0.21   0.04     0.07  -0.01  -0.04     0.05  -0.04   0.00
  11   1    -0.18  -0.04   0.12    -0.04   0.03  -0.00     0.06   0.01  -0.04
  12   1     0.18  -0.04  -0.12     0.04   0.03   0.00     0.06  -0.01  -0.03
  13   1    -0.24  -0.22  -0.03    -0.07  -0.01   0.04     0.05   0.04   0.00
  14   1    -0.29  -0.26  -0.04    -0.04  -0.08   0.06     0.06   0.05  -0.00
  15   1    -0.05  -0.07  -0.11     0.09   0.15   0.31    -0.09  -0.15  -0.30
  16   1     0.02  -0.06  -0.05     0.17   0.29   0.12    -0.15  -0.31  -0.14
  17   1    -0.03   0.02  -0.06     0.28   0.13   0.16    -0.28  -0.11  -0.19
                     34                     35                     36
                        a                      a                      a 
 Frequencies --  2956.6299              2960.4623              2963.5519
 Red. masses --    99.0000                99.0000                99.0000
 Frc consts  --    99.0000                99.0000                99.0000
 IR Inten    --    99.0000                99.0000                99.0000
 Raman Activ --     0.0000                 0.0000                 0.0000
 Depolar     --     0.0000                 0.0000                 0.0000
 Atom AN      X      Y      Z        X      Y      Z        X      Y      Z
   1   6     0.00  -0.00  -0.01    -0.01  -0.01   0.00    -0.01  -0.01  -0.00
   2   6    -0.03  -0.04  -0.02     0.12   0.12  -0.03     0.13   0.14  -0.04
   3   6     0.14   0.00   0.24     0.00  -0.10   0.00     0.04   0.00   0.05
   4   6    -0.03   0.04  -0.02    -0.12   0.12   0.02     0.13  -0.14  -0.03
   5   6     0.00   0.00  -0.01     0.01  -0.01  -0.00    -0.01   0.01  -0.00
   6   1     0.00   0.01   0.01     0.01   0.01   0.02     0.01   0.02   0.03
   7   1    -0.01  -0.01   0.00     0.03   0.04  -0.02     0.03   0.03  -0.02
   8   1    -0.01   0.00   0.01     0.01  -0.01  -0.01     0.02  -0.01  -0.01
   9   1     0.05   0.05  -0.04    -0.35  -0.35   0.25    -0.40  -0.40   0.29
  10   1     0.07   0.11   0.13    -0.07  -0.11  -0.15    -0.06  -0.10  -0.14
  11   1    -0.26  -0.40  -0.43     0.15   0.19   0.25    -0.06  -0.08  -0.09
  12   1    -0.26   0.39  -0.45    -0.15   0.19  -0.25    -0.06   0.08  -0.09
  13   1     0.07  -0.10   0.13     0.07  -0.10   0.15    -0.06   0.09  -0.15
  14   1     0.05  -0.05  -0.04     0.35  -0.35  -0.24    -0.40   0.41   0.27
  15   1    -0.01  -0.00   0.01    -0.01  -0.01   0.01     0.02   0.01  -0.01
  16   1     0.00  -0.01   0.01    -0.01   0.01  -0.02     0.01  -0.02   0.03
  17   1    -0.01   0.01   0.00    -0.03   0.04   0.02     0.03  -0.03  -0.02
                     37                     38                     39
                        a                      a                      a 
 Frequencies --  2992.7823              2990.8284              3027.8146
 Red. masses --    99.0000                99.0000                99.0000
 Frc consts  --    99.0000                99.0000                99.0000
 IR Inten    --    99.0000                99.0000                99.0000
 Raman Activ --     0.0000                 0.0000                 0.0000
 Depolar     --     0.0000                 0.0000                 0.0000
 Atom AN      X      Y      Z        X      Y      Z        X      Y      Z
   1   6     0.01  -0.02  -0.03    -0.00  -0.03  -0.02    -0.04   0.12   0.16
   2   6     0.03   0.06   0.14     0.03   0.07   0.14     0.01   0.01   0.02
   3   6     0.03   0.00   0.06     0.00   0.02   0.00    -0.00   0.01  -0.00
   4   6     0.03  -0.06   0.14    -0.03   0.06  -0.14    -0.01   0.01  -0.03
   5   6     0.01   0.02  -0.04     0.00  -0.03   0.02     0.04   0.12  -0.16
   6   1     0.05   0.07   0.08     0.04   0.05   0.07    -0.20  -0.30  -0.37
   7   1    -0.03  -0.04   0.01     0.02   0.02  -0.02     0.03   0.06  -0.00
   8   1    -0.06   0.03   0.03    -0.04   0.02   0.02     0.32  -0.17  -0.18
   9   1     0.14   0.15  -0.08     0.14   0.15  -0.08     0.02   0.02  -0.01
  10   1    -0.25  -0.37  -0.42    -0.26  -0.39  -0.44    -0.04  -0.06  -0.06
  11   1    -0.05  -0.08  -0.09    -0.02  -0.02  -0.03    -0.01  -0.01  -0.01
  12   1    -0.06   0.08  -0.09     0.02  -0.02   0.03     0.01  -0.01   0.01
  13   1    -0.25   0.36  -0.44     0.26  -0.37   0.45     0.04  -0.06   0.07
  14   1     0.15  -0.15  -0.07    -0.14   0.15   0.07    -0.02   0.02   0.01
  15   1    -0.06  -0.03   0.03     0.04   0.02  -0.02    -0.32  -0.17   0.19
  16   1     0.05  -0.07   0.09    -0.04   0.05  -0.07     0.21  -0.30   0.39
  17   1    -0.03   0.04   0.01    -0.02   0.02   0.02    -0.03   0.06  -0.00
                     40                     41                     42
                        a                      a                      a 
 Frequencies --  3030.8005              3029.0487              2976.1729
 Red. masses --    99.0000                99.0000                99.0000
 Frc consts  --    99.0000                99.0000                99.0000
 IR Inten    --    99.0000                99.0000                99.0000
 Raman Activ --     0.0000                 0.0000                 0.0000
 Depolar     --     0.0000                 0.0000                 0.0000
 Atom AN      X      Y      Z        X      Y      Z        X      Y      Z
   1   6     0.17   0.04  -0.03     0.02  -0.14  -0.15     0.01   0.01  -0.00
   2   6     0.01   0.01  -0.01    -0.01  -0.02  -0.03    -0.06  -0.07   0.03
   3   6     0.00  -0.00   0.00    -0.01  -0.00  -0.02    -0.00  -0.18   0.00
   4   6     0.02  -0.01  -0.01    -0.01   0.02  -0.03     0.06  -0.07  -0.02
   5   6     0.18  -0.04  -0.03     0.01   0.13  -0.15    -0.01   0.01  -0.00
   6   1    -0.10  -0.20  -0.26     0.21   0.33   0.40    -0.01  -0.02  -0.02
   7   1    -0.13  -0.17   0.10     0.02  -0.01  -0.03    -0.03  -0.03   0.02
   8   1    -0.39   0.25   0.25    -0.30   0.16   0.16    -0.01   0.01   0.01
   9   1    -0.04  -0.04   0.02    -0.02  -0.02   0.01     0.21   0.21  -0.15
  10   1     0.00  -0.00  -0.00     0.05   0.08   0.09     0.02   0.03   0.05
  11   1     0.00  -0.00  -0.00     0.02   0.03   0.03     0.25   0.34   0.42
  12   1     0.00   0.00  -0.00     0.02  -0.03   0.03    -0.25   0.32  -0.44
  13   1     0.00   0.00  -0.00     0.05  -0.08   0.09    -0.02   0.03  -0.05
  14   1    -0.04   0.04   0.02    -0.02   0.02   0.01    -0.21   0.22   0.14
  15   1    -0.40  -0.25   0.27    -0.28  -0.14   0.16     0.01   0.01  -0.01
  16   1    -0.10   0.20  -0.27     0.21  -0.31   0.40     0.01  -0.02   0.02
  17   1    -0.13   0.17   0.09     0.02   0.00  -0.03     0.03  -0.03  -0.02
                     43                     44                     45
                        a                      a                      a 
 Frequencies --  3031.5398              3044.2901              3043.8589
 Red. masses --    99.0000                99.0000                99.0000
 Frc consts  --    99.0000                99.0000                99.0000
 IR Inten    --    99.0000                99.0000                99.0000
 Raman Activ --     0.0000                 0.0000                 0.0000
 Depolar     --     0.0000                 0.0000                 0.0000
 Atom AN      X      Y      Z        X      Y      Z        X      Y      Z
   1   6    -0.17  -0.04   0.01    -0.06  -0.13   0.06     0.04   0.11  -0.07
   2   6    -0.02  -0.02  -0.00    -0.01  -0.02  -0.00     0.00   0.01  -0.01
   3   6    -0.00  -0.01  -0.00     0.00  -0.00   0.00    -0.00  -0.00  -0.01
   4   6     0.02  -0.02   0.00     0.01  -0.02   0.00     0.00  -0.01  -0.01
   5   6     0.17  -0.04  -0.01     0.06  -0.13  -0.05     0.05  -0.12  -0.07
   6   1     0.13   0.25   0.31    -0.04  -0.07  -0.05     0.06   0.10   0.10
   7   1     0.10   0.13  -0.08     0.40   0.46  -0.27    -0.38  -0.43   0.25
   8   1     0.38  -0.25  -0.25    -0.16   0.07   0.10     0.16  -0.07  -0.10
   9   1     0.03   0.03  -0.02     0.03   0.03  -0.02    -0.03  -0.03   0.02
  10   1     0.02   0.03   0.03     0.02   0.03   0.04     0.01   0.02   0.02
  11   1     0.01   0.01   0.01     0.01   0.01   0.01     0.01   0.01   0.01
  12   1    -0.01   0.01  -0.01    -0.01   0.01  -0.01     0.01  -0.01   0.01
  13   1    -0.02   0.03  -0.03    -0.02   0.03  -0.04     0.01  -0.02   0.02
  14   1    -0.03   0.03   0.02    -0.03   0.03   0.02    -0.03   0.03   0.02
  15   1    -0.37  -0.23   0.25     0.15   0.06  -0.10     0.17   0.07  -0.11
  16   1    -0.13   0.23  -0.31     0.04  -0.06   0.05     0.06  -0.10   0.10
  17   1    -0.09   0.13   0.07    -0.38   0.45   0.24    -0.39   0.46   0.25
