      -----------------------------------------------------------      
     |                   =====================                   |     
     |                           x T B                           |     
     |                   =====================                   |     
     |                         S. Grimme                         |     
     |          Mulliken Center for Theoretical Chemistry        |     
     |                    University of Bonn                     |     
      -----------------------------------------------------------      

   * xtb version 6.6.1 (8d0f1dd) compiled by 'stahn@M-Bot' on 2023-08-01

   xtb is free software: you can redistribute it and/or modify it under
   the terms of the GNU Lesser General Public License as published by
   the Free Software Foundation, either version 3 of the License, or
   (at your option) any later version.
   
   xtb is distributed in the hope that it will be useful,
   but WITHOUT ANY WARRANTY; without even the implied warranty of
   MERCHANTABILITY or FITNESS FOR A PARTICULAR PURPOSE.  See the
   GNU Lesser General Public License for more details.
   
   Cite this work as:
   * C. Bannwarth, E. Caldeweyher, S. Ehlert, A. Hansen, P. Pracht,
     J. Seibert, S. Spicher, S. Grimme, WIREs Comput. Mol. Sci., 2020, 11,
     e01493. DOI: 10.1002/wcms.1493
   
   for GFN2-xTB:
   * C. Bannwarth, S. Ehlert and S. Grimme., J. Chem. Theory Comput., 2019,
     15, 1652-1671. DOI: 10.1021/acs.jctc.8b01176
   for GFN1-xTB:
   * S. Grimme, C. Bannwarth, P. Shushkov, J. Chem. Theory Comput., 2017,
     13, 1989-2009. DOI: 10.1021/acs.jctc.7b00118
   for GFN0-xTB:
   * P. Pracht, E. Caldeweyher, S. Ehlert, S. Grimme, ChemRxiv, 2019, preprint.
     DOI: 10.26434/chemrxiv.8326202.v1
   for GFN-FF:
   * S. Spicher and S. Grimme, Angew. Chem. Int. Ed., 2020, 59, 15665-15673.
     DOI: 10.1002/anie.202004239
   
   for ALPB and GBSA implicit solvation:
   * S. Ehlert, M. Stahn, S. Spicher, S. Grimme, J. Chem. Theory Comput.,
     2021, 17, 4250-4261. DOI: 10.1021/acs.jctc.1c00471
   
   for DFT-D4:
   * E. Caldeweyher, C. Bannwarth and S. Grimme, J. Chem. Phys., 2017,
     147, 034112. DOI: 10.1063/1.4993215
   * E. Caldeweyher, S. Ehlert, A. Hansen, H. Neugebauer, S. Spicher,
     C. Bannwarth and S. Grimme, J. Chem. Phys., 2019, 150, 154122.
     DOI: 10.1063/1.5090222
   * E. Caldeweyher, J.-M. Mewes, S. Ehlert and S. Grimme, Phys. Chem. Chem. Phys.
     2020, 22, 8499-8512. DOI: 10.1039/D0CP00502A
   
   for sTDA-xTB:
   * S. Grimme and C. Bannwarth, J. Chem. Phys., 2016, 145, 054103.
     DOI: 10.1063/1.4959605
   
   in the mass-spec context:
   * V. Asgeirsson, C. Bauer and S. Grimme, Chem. Sci., 2017, 8, 4879.
     DOI: 10.1039/c7sc00601b
   * J. Koopman and S. Grimme, ACS Omega 2019, 4, 12, 15120-15133.
     DOI: 10.1021/acsomega.9b02011
   
   for metadynamics refer to:
   * S. Grimme, J. Chem. Theory Comput., 2019, 155, 2847-2862
     DOI: 10.1021/acs.jctc.9b00143
   
   for SPH calculations refer to:
   * S. Spicher and S. Grimme, J. Chem. Theory Comput., 2021, 17, 1701-1714
     DOI: 10.1021/acs.jctc.0c01306
   
   with help from (in alphabetical order)
   P. Atkinson, C. Bannwarth, F. Bohle, G. Brandenburg, E. Caldeweyher
   M. Checinski, S. Dohm, S. Ehlert, S. Ehrlich, I. Gerasimov, C. Hölzer
   A. Katbashev, J. Koopman, C. Lavigne, S. Lehtola, F. März, M. Müller,
   F. Musil, H. Neugebauer, J. Pisarek, C. Plett, P. Pracht, F. Pultar,
   J. Seibert, P. Shushkov, S. Spicher, M. Stahn, M. Steiner, T. Strunk,
   J. Stückrath, T. Rose, and J. Unsleber
   
 * started run on 2024/04/23 at 12:09:57.958     

           -------------------------------------------------
          |                Calculation Setup                |
           -------------------------------------------------

          program call               : xtb folded.xyz --gfn 2 --ohess -P 4
          coordinate file            : folded.xyz
          omp threads                :                     4

   ID    Z sym.   atoms
    1    6 C      1-5
    2    1 H      6-17

           -------------------------------------------------
          |                 G F N 2 - x T B                 |
           -------------------------------------------------

        Reference                      10.1021/acs.jctc.8b01176
      * Hamiltonian:
        H0-scaling (s, p, d)           1.850000    2.230000    2.230000
        zeta-weighting                 0.500000
      * Dispersion:
        s8                             2.700000
        a1                             0.520000
        a2                             5.000000
        s9                             5.000000
      * Repulsion:
        kExp                           1.500000    1.000000
        rExp                           1.000000
      * Coulomb:
        alpha                          2.000000
        third order                    shell-resolved
        anisotropic                    true
        a3                             3.000000
        a5                             4.000000
        cn-shift                       1.200000
        cn-exp                         4.000000
        max-rad                        5.000000


          ...................................................
          :                      SETUP                      :
          :.................................................:
          :  # basis functions                  32          :
          :  # atomic orbitals                  32          :
          :  # shells                           22          :
          :  # electrons                        32          :
          :  max. iterations                   250          :
          :  Hamiltonian                  GFN2-xTB          :
          :  restarted?                      false          :
          :  GBSA solvation                  false          :
          :  PC potential                    false          :
          :  electronic temp.          300.0000000     K    :
          :  accuracy                    1.0000000          :
          :  -> integral cutoff          0.2500000E+02      :
          :  -> integral neglect         0.1000000E-07      :
          :  -> SCF convergence          0.1000000E-05 Eh   :
          :  -> wf. convergence          0.1000000E-03 e    :
          :  Broyden damping             0.4000000          :
          ...................................................

 iter      E             dE          RMSdq      gap      omega  full diag
   1    -17.0269919 -0.170270E+02  0.240E+00   14.00       0.0  T
   2    -17.0752598 -0.482679E-01  0.118E+00   13.73       1.0  T
   3    -17.0757064 -0.446563E-03  0.650E-01   13.71       1.0  T
   4    -17.0758512 -0.144848E-03  0.863E-02   13.69       1.0  T
   5    -17.0758574 -0.621030E-05  0.468E-02   13.69       1.0  T
   6    -17.0758581 -0.651058E-06  0.372E-03   13.69       6.5  T
   7    -17.0758582 -0.721983E-07  0.157E-03   13.69      15.5  T
   8    -17.0758582 -0.467472E-08  0.218E-04   13.69     111.2  T
   9    -17.0758582 -0.198384E-10  0.941E-05   13.69     257.7  T

   *** convergence criteria satisfied after 9 iterations ***

         #    Occupation            Energy/Eh            Energy/eV
      -------------------------------------------------------------
         1        2.0000           -0.6188583             -16.8400
       ...           ...                  ...                  ...
        10        2.0000           -0.4757797             -12.9466
        11        2.0000           -0.4535271             -12.3411
        12        2.0000           -0.4430548             -12.0561
        13        2.0000           -0.4430050             -12.0548
        14        2.0000           -0.4211934             -11.4613
        15        2.0000           -0.4202527             -11.4357
        16        2.0000           -0.4149722             -11.2920 (HOMO)
        17                          0.0882793               2.4022 (LUMO)
        18                          0.0924126               2.5147
        19                          0.1179343               3.2092
        20                          0.1308754               3.5613
        21                          0.1312819               3.5724
       ...                                ...                  ...
        32                          0.2950044               8.0275
      -------------------------------------------------------------
                  HL-Gap            0.5032515 Eh           13.6942 eV
             Fermi-level           -0.1633465 Eh           -4.4449 eV

 SCC (total)                   0 d,  0 h,  0 min,  0.005 sec
 SCC setup                      ...        0 min,  0.000 sec (  6.628%)
 Dispersion                     ...        0 min,  0.000 sec (  2.023%)
 classical contributions        ...        0 min,  0.000 sec (  0.405%)
 integral evaluation            ...        0 min,  0.000 sec (  7.577%)
 iterations                     ...        0 min,  0.003 sec ( 60.286%)
 molecular gradient             ...        0 min,  0.001 sec ( 17.095%)
 printout                       ...        0 min,  0.000 sec (  5.414%)

         :::::::::::::::::::::::::::::::::::::::::::::::::::::
         ::                     SUMMARY                     ::
         :::::::::::::::::::::::::::::::::::::::::::::::::::::
         :: total energy             -16.826515208296 Eh    ::
         :: gradient norm              0.021518478301 Eh/a0 ::
         :: HOMO-LUMO gap             13.694171157336 eV    ::
         ::.................................................::
         :: SCC energy               -17.075858158207 Eh    ::
         :: -> isotropic ES            0.003197510728 Eh    ::
         :: -> anisotropic ES          0.006241129418 Eh    ::
         :: -> anisotropic XC          0.010729877562 Eh    ::
         :: -> dispersion             -0.008912465899 Eh    ::
         :: repulsion energy           0.249319550103 Eh    ::
         :: add. restraining           0.000000000000 Eh    ::
         :: total charge              -0.000000000000 e     ::
         :::::::::::::::::::::::::::::::::::::::::::::::::::::

      ----------------------------------------------------------- 
     |                   =====================                   |
     |                        A N C O P T                        |
     |                   =====================                   |
     |               Approximate Normal Coordinate               |
     |                Rational Function Optimizer                |
      ----------------------------------------------------------- 

          ...................................................
          :                      SETUP                      :
          :.................................................:
          :   optimization level            normal          :
          :   max. optcycles                   200          :
          :   ANC micro-cycles                  20          :
          :   degrees of freedom                45          :
          :.................................................:
          :   RF solver                   davidson          :
          :   write xtbopt.log                true          :
          :   linear?                        false          :
          :   energy convergence         0.5000000E-05 Eh   :
          :   grad. convergence          0.1000000E-02 Eh/α :
          :   maxmium RF displ.          2.0000000          :
          :   Hlow (freq-cutoff)         0.2000000E-01      :
          :   Hmax (freq-cutoff)         5.0000000          :
          :   S6 in model hess.         70.0000000          :
          ...................................................

generating ANC from model Hessian ...
Using Lindh-Hessian (1995)
 Shifting diagonal of input Hessian by   1.657503922999126E-002
 Lowest  eigenvalues of input Hessian
    0.000000    0.000000    0.000000    0.000000    0.000000    0.000000
    0.020000    0.024690    0.026868    0.030576    0.032899    0.035838
    0.044096    0.060575    0.063854    0.066674    0.067676    0.069864
 Highest eigenvalues
    1.143730    1.149900    1.184309    1.238463    1.270671    1.287443
 

........................................................................
.............................. CYCLE    1 ..............................
........................................................................

 iter      E             dE          RMSdq      gap      omega  full diag
   1    -17.0758582 -0.170759E+02  0.109E-05   13.69       0.0  T
   2    -17.0758582 -0.124345E-12  0.555E-06   13.69    4372.6  T
   3    -17.0758582  0.000000E+00  0.873E-07   13.69   27791.9  T
     SCC iter.                  ...        0 min,  0.001 sec
     gradient                   ...        0 min,  0.001 sec
 * total energy  :   -16.8265152 Eh     change       -0.3861800E-11 Eh
   gradient norm :     0.0215184 Eh/α   predicted     0.0000000E+00 (-100.00%)
   displ. norm   :     0.1228030 α      lambda       -0.1437123E-02
   maximum displ.:     0.0850569 α      in ANC's #13, #18, #3, ...

........................................................................
.............................. CYCLE    2 ..............................
........................................................................

 iter      E             dE          RMSdq      gap      omega  full diag
   1    -17.0818574 -0.170819E+02  0.139E-01   13.93       0.0  T
   2    -17.0818606 -0.314019E-05  0.799E-02   13.93       1.0  T
   3    -17.0818609 -0.282841E-06  0.477E-03   13.93       5.1  T
   4    -17.0818609 -0.273133E-07  0.108E-03   13.93      22.5  T
   5    -17.0818609 -0.905448E-09  0.595E-04   13.93      40.8  T
   6    -17.0818609 -0.118629E-09  0.641E-05   13.93     378.3  T
     SCC iter.                  ...        0 min,  0.001 sec
     gradient                   ...        0 min,  0.001 sec
 * total energy  :   -16.8274363 Eh     change       -0.9211192E-03 Eh
   gradient norm :     0.0095109 Eh/α   predicted    -0.7293971E-03 ( -20.81%)
   displ. norm   :     0.0563434 α      lambda       -0.2203930E-03
   maximum displ.:     0.0356647 α      in ANC's #3, #13, #18, ...

........................................................................
.............................. CYCLE    3 ..............................
........................................................................

 iter      E             dE          RMSdq      gap      omega  full diag
   1    -17.0849808 -0.170850E+02  0.537E-02   14.00       0.0  T
   2    -17.0849823 -0.153980E-05  0.304E-02   14.00       1.0  T
   3    -17.0849823 -0.376648E-07  0.430E-03   14.00       5.6  T
   4    -17.0849824 -0.132051E-07  0.552E-04   14.00      43.9  T
   5    -17.0849824 -0.848207E-09  0.310E-04   14.00      78.3  T
     SCC iter.                  ...        0 min,  0.001 sec
     gradient                   ...        0 min,  0.001 sec
 * total energy  :   -16.8275594 Eh     change       -0.1230387E-03 Eh
   gradient norm :     0.0019089 Eh/α   predicted    -0.1105464E-03 ( -10.15%)
   displ. norm   :     0.0367142 α      lambda       -0.1721366E-04
   maximum displ.:     0.0348662 α      in ANC's #3, #1, #9, ...

........................................................................
.............................. CYCLE    4 ..............................
........................................................................

 iter      E             dE          RMSdq      gap      omega  full diag
   1    -17.0854333 -0.170854E+02  0.103E-02   14.00       0.0  T
   2    -17.0854334 -0.123942E-06  0.602E-03   14.00       4.0  T
   3    -17.0854334 -0.302523E-08  0.136E-03   14.00      17.9  T
   4    -17.0854334 -0.784691E-09  0.223E-04   14.00     108.8  T
   5    -17.0854334 -0.149207E-09  0.937E-05   14.00     258.7  T
     SCC iter.                  ...        0 min,  0.001 sec
     gradient                   ...        0 min,  0.001 sec
 * total energy  :   -16.8275760 Eh     change       -0.1663475E-04 Eh
   gradient norm :     0.0011770 Eh/α   predicted    -0.8610629E-05 ( -48.24%)
   displ. norm   :     0.0441092 α      lambda       -0.1111796E-04
   maximum displ.:     0.0414580 α      in ANC's #3, #1, #4, ...

........................................................................
.............................. CYCLE    5 ..............................
........................................................................

 iter      E             dE          RMSdq      gap      omega  full diag
   1    -17.0850586 -0.170851E+02  0.101E-02   13.98       0.0  T
   2    -17.0850586 -0.260908E-07  0.598E-03   13.98       4.1  T
   3    -17.0850586 -0.481964E-08  0.579E-04   13.98      41.9  T
   4    -17.0850586 -0.384507E-09  0.187E-04   13.98     129.8  T
     SCC iter.                  ...        0 min,  0.001 sec
     gradient                   ...        0 min,  0.001 sec
 * total energy  :   -16.8275876 Eh     change       -0.1164732E-04 Eh
   gradient norm :     0.0011863 Eh/α   predicted    -0.5562702E-05 ( -52.24%)
   displ. norm   :     0.0413639 α      lambda       -0.6464657E-05
   maximum displ.:     0.0363717 α      in ANC's #3, #4, #1, ...

........................................................................
.............................. CYCLE    6 ..............................
........................................................................

 iter      E             dE          RMSdq      gap      omega  full diag
   1    -17.0849079 -0.170849E+02  0.101E-02   13.98       0.0  T
   2    -17.0849080 -0.262143E-07  0.601E-03   13.98       4.0  T
   3    -17.0849080 -0.200815E-08  0.503E-04   13.98      48.3  T
   4    -17.0849080 -0.515413E-09  0.178E-04   13.98     136.1  T
     SCC iter.                  ...        0 min,  0.001 sec
     gradient                   ...        0 min,  0.001 sec
 * total energy  :   -16.8275945 Eh     change       -0.6804386E-05 Eh
   gradient norm :     0.0004949 Eh/α   predicted    -0.3235357E-05 ( -52.45%)
   displ. norm   :     0.0370450 α      lambda       -0.3804367E-05
   maximum displ.:     0.0268795 α      in ANC's #3, #4, #7, ...

........................................................................
.............................. CYCLE    7 ..............................
........................................................................

 iter      E             dE          RMSdq      gap      omega  full diag
   1    -17.0848523 -0.170849E+02  0.945E-03   13.98       0.0  T
   2    -17.0848524 -0.110835E-07  0.568E-03   13.98       4.3  T
   3    -17.0848524 -0.880881E-09  0.307E-04   13.98      79.1  T
   4    -17.0848524 -0.390624E-09  0.126E-04   13.98     192.6  T
     SCC iter.                  ...        0 min,  0.001 sec
     gradient                   ...        0 min,  0.001 sec
 * total energy  :   -16.8275984 Eh     change       -0.3938600E-05 Eh
   gradient norm :     0.0003523 Eh/α   predicted    -0.1902643E-05 ( -51.69%)
   displ. norm   :     0.0312514 α      lambda       -0.2569064E-05
   maximum displ.:     0.0249811 α      in ANC's #4, #3, #7, ...

   *** GEOMETRY OPTIMIZATION CONVERGED AFTER 7 ITERATIONS ***

------------------------------------------------------------------------
 total energy gain   :        -0.0010832 Eh       -0.6797 kcal/mol
 total RMSD          :         0.0653558 a0        0.0346 Å
 total power (kW/mol):        -0.4062709 (step) -113.6384 (real)
------------------------------------------------------------------------

 ANCopt (total)                0 d,  0 h,  0 min,  0.025 sec
 optimizer setup                ...        0 min,  0.002 sec (  7.156%)
 model hessian                  ...        0 min,  0.006 sec ( 24.076%)
 ANC generation                 ...        0 min,  0.000 sec (  1.437%)
 coordinate transformation      ...        0 min,  0.000 sec (  0.263%)
 single point calculation       ...        0 min,  0.015 sec ( 58.893%)
 optimization log               ...        0 min,  0.000 sec (  1.756%)
 hessian update                 ...        0 min,  0.000 sec (  0.551%)
 rational function              ...        0 min,  0.001 sec (  2.859%)

================
 final structure:
================
17
 xtb: 6.6.1 (8d0f1dd)
C           -1.89327499330269        0.65889149957042       -0.34225184852248
C           -1.11113431967864       -0.18122793202880        0.66043310621875
C            0.00002549881225       -1.01368138927130        0.01830158571439
C            1.11090026575455       -0.20466160678394       -0.65357925607116
C            1.89355668138060        0.67046346069111        0.31827500342204
H           -2.29321982815275        0.03072466202070       -1.13576800907829
H           -1.26250293340738        1.42149120842252       -0.79174193631328
H           -2.72477783179722        1.15750475276805        0.15156545558678
H           -1.80152357792076       -0.86676401582020        1.15878686838468
H           -0.68936623677728        0.46832587895973        1.42912371181944
H           -0.44769791701314       -1.67399024769470       -0.72921932736190
H            0.44789291705813       -1.64646239245873        0.78918269882621
H            0.68875887054220        0.41719108348190       -1.44464566105353
H            1.80103864691312       -0.90749902234411       -1.12758352201862
H            2.72364448885589        1.15274406005107       -0.19380518128576
H            2.29554928534102        0.07053711892803        1.13235346508361
H            1.26251798339211        1.44734788150822        0.74221084664909
           -------------------------------------------------
          |                Final Singlepoint                |
           -------------------------------------------------

          ...................................................
          :                      SETUP                      :
          :.................................................:
          :  # basis functions                  32          :
          :  # atomic orbitals                  32          :
          :  # shells                           22          :
          :  # electrons                        32          :
          :  max. iterations                   250          :
          :  Hamiltonian                  GFN2-xTB          :
          :  restarted?                      false          :
          :  GBSA solvation                  false          :
          :  PC potential                    false          :
          :  electronic temp.          300.0000000     K    :
          :  accuracy                    1.0000000          :
          :  -> integral cutoff          0.2500000E+02      :
          :  -> integral neglect         0.1000000E-07      :
          :  -> SCF convergence          0.1000000E-05 Eh   :
          :  -> wf. convergence          0.1000000E-03 e    :
          :  Broyden damping             0.4000000          :
          ...................................................

 iter      E             dE          RMSdq      gap      omega  full diag
   1    -17.0848524 -0.170849E+02  0.557E-05   13.98       0.0  T
   2    -17.0848524 -0.179767E-11  0.320E-05   13.98     758.2  T
   3    -17.0848524 -0.852651E-13  0.602E-06   13.98    4028.5  T

   *** convergence criteria satisfied after 3 iterations ***

         #    Occupation            Energy/Eh            Energy/eV
      -------------------------------------------------------------
         1        2.0000           -0.6196275             -16.8609
       ...           ...                  ...                  ...
        10        2.0000           -0.4770824             -12.9821
        11        2.0000           -0.4525795             -12.3153
        12        2.0000           -0.4435720             -12.0702
        13        2.0000           -0.4425641             -12.0428
        14        2.0000           -0.4216273             -11.4731
        15        2.0000           -0.4191461             -11.4055
        16        2.0000           -0.4160231             -11.3206 (HOMO)
        17                          0.0976772               2.6579 (LUMO)
        18                          0.0994945               2.7074
        19                          0.1237780               3.3682
        20                          0.1373654               3.7379
        21                          0.1394475               3.7946
       ...                                ...                  ...
        32                          0.3056595               8.3174
      -------------------------------------------------------------
                  HL-Gap            0.5137003 Eh           13.9785 eV
             Fermi-level           -0.1591730 Eh           -4.3313 eV

 SCC (total)                   0 d,  0 h,  0 min,  0.002 sec
 SCC setup                      ...        0 min,  0.000 sec ( 10.049%)
 Dispersion                     ...        0 min,  0.000 sec (  1.419%)
 classical contributions        ...        0 min,  0.000 sec (  0.704%)
 integral evaluation            ...        0 min,  0.000 sec ( 12.835%)
 iterations                     ...        0 min,  0.001 sec ( 28.740%)
 molecular gradient             ...        0 min,  0.001 sec ( 34.258%)
 printout                       ...        0 min,  0.000 sec ( 10.670%)

         :::::::::::::::::::::::::::::::::::::::::::::::::::::
         ::                     SUMMARY                     ::
         :::::::::::::::::::::::::::::::::::::::::::::::::::::
         :: total energy             -16.827598391290 Eh    ::
         :: gradient norm              0.000352307640 Eh/a0 ::
         :: HOMO-LUMO gap             13.978496828359 eV    ::
         ::.................................................::
         :: SCC energy               -17.084852353291 Eh    ::
         :: -> isotropic ES            0.003409183321 Eh    ::
         :: -> anisotropic ES          0.005938607974 Eh    ::
         :: -> anisotropic XC          0.010757880590 Eh    ::
         :: -> dispersion             -0.008897906567 Eh    ::
         :: repulsion energy           0.257231152765 Eh    ::
         :: add. restraining           0.000000000000 Eh    ::
         :: total charge               0.000000000000 e     ::
         :::::::::::::::::::::::::::::::::::::::::::::::::::::

           ------------------------------------------------- 
          |                Numerical Hessian                |
           ------------------------------------------------- 
step length          :   0.00500
SCC accuracy         :   0.30000
Hessian scale factor :   1.00000
frozen atoms in %    :   0.00000    0
RMS gradient         :   0.00035
estimated CPU  time      0.03 min
estimated wall time      0.01 min

writing file <hessian>.

 projected vibrational frequencies (cm⁻¹)
eigval :       -0.00    -0.00    -0.00     0.00     0.00     0.00
eigval :       54.02   136.98   218.30   270.92   277.85   381.86
eigval :      463.39   764.08   815.49   887.32   889.02   955.32
eigval :     1025.79  1043.50  1066.22  1147.51  1148.54  1170.02
eigval :     1237.92  1254.48  1287.14  1344.92  1360.25  1364.52
eigval :     1415.34  1416.53  1487.25  1494.52  1498.04  1504.07
eigval :     1507.61  1514.46  1518.31  2956.63  2960.46  2963.55
eigval :     2976.17  2990.83  2992.78  3027.81  3029.05  3030.80
eigval :     3031.54  3043.86  3044.29
           -------------------------------------------------
          |                Property Printout                |
           -------------------------------------------------

    * Orbital Energies and Occupations

         #    Occupation            Energy/Eh            Energy/eV
      -------------------------------------------------------------
         1        2.0000           -0.6196275             -16.8609
       ...           ...                  ...                  ...
         4        2.0000           -0.5664734             -15.4145
         5        2.0000           -0.5407517             -14.7146
         6        2.0000           -0.5120083             -13.9325
         7        2.0000           -0.5090354             -13.8516
         8        2.0000           -0.4814181             -13.1001
         9        2.0000           -0.4809942             -13.0885
        10        2.0000           -0.4770824             -12.9821
        11        2.0000           -0.4525795             -12.3153
        12        2.0000           -0.4435720             -12.0702
        13        2.0000           -0.4425641             -12.0428
        14        2.0000           -0.4216273             -11.4731
        15        2.0000           -0.4191461             -11.4055
        16        2.0000           -0.4160231             -11.3206 (HOMO)
        17                          0.0976772               2.6579 (LUMO)
        18                          0.0994945               2.7074
        19                          0.1237780               3.3682
        20                          0.1373654               3.7379
        21                          0.1394476               3.7946
        22                          0.1484486               4.0395
        23                          0.1503826               4.0921
        24                          0.1923973               5.2354
        25                          0.2053932               5.5890
        26                          0.2090150               5.6876
        27                          0.2242758               6.1029
       ...                                ...                  ...
        32                          0.3056595               8.3174
      -------------------------------------------------------------
                  HL-Gap            0.5137003 Eh           13.9785 eV
             Fermi-level           -0.1591730 Eh           -4.3313 eV

     #   Z          covCN         q      C6AA      α(0)
     1   6 C        3.751    -0.101    22.483     6.762
     2   6 C        3.799    -0.052    21.509     6.603
     3   6 C        3.801    -0.057    21.607     6.618
     4   6 C        3.799    -0.052    21.509     6.603
     5   6 C        3.751    -0.101    22.483     6.762
     6   1 H        0.925     0.032     2.559     2.502
     7   1 H        0.925     0.035     2.517     2.481
     8   1 H        0.925     0.029     2.595     2.519
     9   1 H        0.924     0.026     2.650     2.546
    10   1 H        0.924     0.032     2.559     2.502
    11   1 H        0.924     0.027     2.623     2.533
    12   1 H        0.924     0.027     2.623     2.533
    13   1 H        0.924     0.032     2.559     2.501
    14   1 H        0.924     0.026     2.650     2.546
    15   1 H        0.925     0.029     2.595     2.519
    16   1 H        0.925     0.032     2.559     2.502
    17   1 H        0.925     0.035     2.517     2.481

 Mol. C6AA /au·bohr⁶  :       1817.181681
 Mol. C8AA /au·bohr⁸  :      37120.209872
 Mol. α(0) /au        :         63.511987


Wiberg/Mayer (AO) data.
largest (>0.10) Wiberg bond orders for each atom

 ---------------------------------------------------------------------------
     #   Z sym  total        # sym  WBO       # sym  WBO       # sym  WBO
 ---------------------------------------------------------------------------
     1   6 C    3.997 --     2 C    1.020     6 H    0.988     8 H    0.988
                             7 H    0.986
     2   6 C    3.998 --     1 C    1.020     3 C    1.008     9 H    0.979
                            10 H    0.976
     3   6 C    3.998 --     2 C    1.008     4 C    1.008    11 H    0.978
                            12 H    0.978
     4   6 C    3.998 --     5 C    1.020     3 C    1.008    14 H    0.979
                            13 H    0.976
     5   6 C    3.997 --     4 C    1.020    16 H    0.988    15 H    0.988
                            17 H    0.986
     6   1 H    0.999 --     1 C    0.988
     7   1 H    0.999 --     1 C    0.986
     8   1 H    0.999 --     1 C    0.988
     9   1 H    0.999 --     2 C    0.979
    10   1 H    0.999 --     2 C    0.976
    11   1 H    0.999 --     3 C    0.978
    12   1 H    0.999 --     3 C    0.978
    13   1 H    0.999 --     4 C    0.976
    14   1 H    0.999 --     4 C    0.979
    15   1 H    0.999 --     5 C    0.988
    16   1 H    0.999 --     5 C    0.988
    17   1 H    0.999 --     5 C    0.986
 ---------------------------------------------------------------------------

Topologies differ in total number of bonds
Writing topology from bond orders to xtbtopo.mol

molecular dipole:
                 x           y           z       tot (Debye)
 q only:       -0.000       0.015      -0.000
   full:       -0.000       0.009      -0.000       0.024
molecular quadrupole (traceless):
                xx          xy          yy          xz          yz          zz
 q only:       -0.144       0.001       0.035       0.034       0.001       0.108
  q+dip:       -0.328      -0.000       0.160      -0.015       0.000       0.168
   full:       -0.184      -0.000       0.087      -0.005       0.000       0.097

           -------------------------------------------------
          |                Geometry Summary                 |
           -------------------------------------------------

      molecular mass/u    :       72.1489685
   center of mass at/Å    :        0.0000166       0.0032753      -0.0000768
  moments of inertia/u·Å² :        0.6301166E+02   0.1772505E+03   0.1907209E+03
rotational constants/cm⁻¹ :        0.2675319E+00   0.9510623E-01   0.8838903E-01

 * 16 selected distances

     #   Z          #   Z                                           value/Å
     1   6 C        2   6 C                                       1.5241136
     2   6 C        3   6 C                                       1.5297020 (max)
     3   6 C        4   6 C                                       1.5296993
     4   6 C        5   6 C                                       1.5241050
     1   6 C        6   1 H                                       1.0882176
     1   6 C        7   1 H                                       1.0869560 (min)
     1   6 C        8   1 H                                       1.0880569
     2   6 C        9   1 H                                       1.0931394
     2   6 C       10   1 H                                       1.0911892
     3   6 C       11   1 H                                       1.0932757
     3   6 C       12   1 H                                       1.0932772
     4   6 C       13   1 H                                       1.0911876
     4   6 C       14   1 H                                       1.0931385
     5   6 C       15   1 H                                       1.0880564
     5   6 C       16   1 H                                       1.0882250
     5   6 C       17   1 H                                       1.0869595

 * 2 distinct bonds (by element types)

   Z      Z             #   av. dist./Å        max./Å        min./Å
   1 H    6 C          12     1.0901399     1.0932772     1.0869560
   6 C    6 C           4     1.5269050     1.5297020     1.5241050

           -------------------------------------------------
          |               Frequency Printout                |
           -------------------------------------------------
 projected vibrational frequencies (cm⁻¹)
eigval :       -0.00    -0.00    -0.00     0.00     0.00     0.00
eigval :       54.02   136.98   218.30   270.92   277.85   381.86
eigval :      463.39   764.08   815.49   887.32   889.02   955.32
eigval :     1025.79  1043.50  1066.22  1147.51  1148.54  1170.02
eigval :     1237.92  1254.48  1287.14  1344.92  1360.25  1364.52
eigval :     1415.34  1416.53  1487.25  1494.52  1498.04  1504.07
eigval :     1507.61  1514.46  1518.31  2956.63  2960.46  2963.55
eigval :     2976.17  2990.83  2992.78  3027.81  3029.05  3030.80
eigval :     3031.54  3043.86  3044.29
 reduced masses (amu)
   1:  9.29   2:  9.29   3:  9.29   4:  9.99   5:  9.97   6:  8.17   7:  7.64   8:  3.87
   9:  1.44  10:  8.06  11:  4.40  12:  6.56  13:  7.53  14:  2.64  15:  4.52  16:  6.05
  17:  3.65  18:  6.00  19:  4.23  20:  4.47  21:  6.10  22:  7.18  23:  6.63  24:  7.41
  25:  3.84  26:  3.05  27:  2.15  28:  4.50  29:  4.61  30:  4.81  31:  3.21  32:  3.25
  33:  1.84  34:  1.85  35:  1.80  36:  1.61  37:  1.57  38:  1.56  39:  1.74  40:  1.95
  41:  1.76  42:  1.87  43:  1.59  44:  1.59  45:  1.61  46:  1.93  47:  1.93  48:  1.75
  49:  1.69  50:  1.47  51:  1.53
 IR intensities (km·mol⁻¹)
   1:  0.00   2:  0.00   3:  0.00   4:  0.00   5:  0.00   6:  0.00   7:  0.00   8:  0.09
   9:  0.01  10:  0.08  11:  0.05  12:  1.06  13:  0.64  14: 13.10  15:  3.60  16:  3.43
  17:  0.05  18:  7.49  19:  0.35  20:  0.48  21:  1.39  22:  2.04  23:  0.08  24:  2.57
  25:  0.57  26:  0.48  27:  0.34  28:  3.21  29:  1.96  30:  1.46  31:  0.88  32:  2.99
  33:  0.03  34:  0.26  35:  0.38  36:  4.11  37:  0.62  38:  0.69  39:  1.67  40: 29.35
  41:  6.52  42: 53.38  43: 82.25  44:  3.49  45: 66.46  46: 33.40  47: 81.52  48: 96.50
  49:  2.05  50: 22.37  51: 53.56
 Raman intensities (amu)
   1:  0.00   2:  0.00   3:  0.00   4:  0.00   5:  0.00   6:  0.00   7:  0.00   8:  0.00
   9:  0.00  10:  0.00  11:  0.00  12:  0.00  13:  0.00  14:  0.00  15:  0.00  16:  0.00
  17:  0.00  18:  0.00  19:  0.00  20:  0.00  21:  0.00  22:  0.00  23:  0.00  24:  0.00
  25:  0.00  26:  0.00  27:  0.00  28:  0.00  29:  0.00  30:  0.00  31:  0.00  32:  0.00
  33:  0.00  34:  0.00  35:  0.00  36:  0.00  37:  0.00  38:  0.00  39:  0.00  40:  0.00
  41:  0.00  42:  0.00  43:  0.00  44:  0.00  45:  0.00  46:  0.00  47:  0.00  48:  0.00
  49:  0.00  50:  0.00  51:  0.00
 output can be read by thermo (or use thermo option).
 writing <g98.out> molden fake output.
 recommended (thermochemical) frequency scaling factor: 1.0
           -------------------------------------------------
          |             Thermodynamic Functions             |
           -------------------------------------------------

Molecule has the following symmetry elements: (C2) 
It seems to be the C2 point group
c2  symmetry found (for desy threshold:  0.10E+00) used in thermo

          ...................................................
          :                      SETUP                      :
          :.................................................:
          :  # frequencies                          45      :
          :  # imaginary freq.                       0      :
          :  linear?                             false      :
          :  only rotor calc.                    false      :
          :  symmetry                               c2      :
          :  rotational number                       2      :
          :  scaling factor                  1.0000000      :
          :  rotor cutoff                   50.0000000 cm⁻¹ :
          :  imag. cutoff                  -20.0000000 cm⁻¹ :
          :.................................................:

    mode    ω/cm⁻¹     T·S(HO)/kcal·mol⁻¹    T·S(FR)/kcal·mol⁻¹   T·S(vib)
   ------------------------------------------------------------------------
       1     54.02    -1.39071 ( 57.67%)    -1.03299 ( 42.33%)    -1.23930
       2    136.98    -0.84844 ( 98.26%)    -0.75775 (  1.74%)    -0.84685
       3    218.30    -0.58830 ( 99.73%)    -0.61978 (  0.27%)    -0.58839
       4    270.92    -0.47416 ( 99.88%)    -0.55583 (  0.12%)    -0.47425
       5    277.85    -0.46119 ( 99.90%)    -0.54835 (  0.10%)    -0.46129
   ------------------------------------------------------------------------

   temp. (K)  partition function   enthalpy   heat capacity  entropy
                                   cal/mol     cal/K/mol   cal/K/mol   J/K/mol
 298.15  VIB   39.0                 2572.356     17.647     15.396
         ROT  0.557E+05              888.752      2.981     24.699
         INT  0.217E+07             3461.109     20.628     40.095
         TR   0.593E+27             1481.254      4.968     38.727
         TOT                        4942.3625    25.5963    78.8220   329.7912

       T/K    H(0)-H(T)+PV         H(T)/Eh          T*S/Eh         G(T)/Eh
   ------------------------------------------------------------------------
    298.15    0.787616E-02    0.167278E+00    0.374509E-01    0.129827E+00
   ------------------------------------------------------------------------

         :::::::::::::::::::::::::::::::::::::::::::::::::::::
         ::                  THERMODYNAMIC                  ::
         :::::::::::::::::::::::::::::::::::::::::::::::::::::
         :: total free energy         -16.697771384990 Eh   ::
         ::.................................................::
         :: total energy              -16.827598391290 Eh   ::
         :: zero point energy           0.159401720792 Eh   ::
         :: G(RRHO) w/o ZPVE           -0.029574714492 Eh   ::
         :: G(RRHO) contrib.            0.129827006300 Eh   ::
         :::::::::::::::::::::::::::::::::::::::::::::::::::::
 
 normal mode %tage of torsion character
   1:  0.00   2:  0.00   3:  0.00   4:  0.00   5:  0.00   6:  0.00   7:  0.44   8:  0.62
   9:  0.92  10:  0.43  11:  0.81  12:  0.38  13:  0.29  14:  0.58  15:  0.39  16:  0.35
  17:  0.34  18:  0.15  19:  0.14  20:  0.30  21:  0.10  22:  0.42  23:  0.38  24:  0.20
  25:  0.28  26:  0.25  27:  0.09  28:  0.12  29:  0.06  30:  0.17  31:  0.00  32:  0.00
  33:  0.68  34:  0.69  35:  0.68  36:  0.90  37:  0.89  38:  0.88  39:  0.78  40:  0.25
  41:  0.25  42:  0.21  43:  0.01  44:  0.06  45:  0.07  46:  0.04  47:  0.04  48:  0.04
  49:  0.03  50:  0.02  51:  0.02
 recommended # of modes for mode following           4

optimized geometry written to: xtbopt.xyz


           -------------------------------------------------
          | TOTAL ENERGY              -16.827598391290 Eh   |
          | TOTAL ENTHALPY            -16.660320514437 Eh   |
          | TOTAL FREE ENERGY         -16.697771384990 Eh   |
          | GRADIENT NORM               0.000352315173 Eh/α |
          | HOMO-LUMO GAP              13.978496981373 eV   |
           -------------------------------------------------

------------------------------------------------------------------------
 * finished run on 2024/04/23 at 12:09:58.293     
------------------------------------------------------------------------
 total:
 * wall-time:     0 d,  0 h,  0 min,  0.334 sec
 *  cpu-time:     0 d,  0 h,  0 min,  1.083 sec
 * ratio c/w:     3.241 speedup
 SCF:
 * wall-time:     0 d,  0 h,  0 min,  0.005 sec
 *  cpu-time:     0 d,  0 h,  0 min,  0.019 sec
 * ratio c/w:     3.600 speedup
 ANC optimizer:
 * wall-time:     0 d,  0 h,  0 min,  0.042 sec
 *  cpu-time:     0 d,  0 h,  0 min,  0.143 sec
 * ratio c/w:     3.441 speedup
 analytical hessian:
 * wall-time:     0 d,  0 h,  0 min,  0.136 sec
 *  cpu-time:     0 d,  0 h,  0 min,  0.520 sec
 * ratio c/w:     3.836 speedup

