17
 energy: -16.827598391290 gnorm: 0.000352307640 xtb: 6.6.1 (8d0f1dd)
C           -1.89327273800885        0.65890081538916       -0.34224638972602
C           -1.11113296321030       -0.18122096147919        0.66043730110659
C            0.00002025507983       -1.01368135744742        0.01830335483303
C            1.11089691270018       -0.20466856414006       -0.65358277663775
C            1.89356130286975        0.67045410153016        0.31826722348040
H           -2.29322363182221        0.03073468702281       -1.13576005784700
H           -1.26249825418844        1.42149643701488       -0.79174001031084
H           -2.72477124200498        1.15751928418263        0.15157294662763
H           -1.80152407130575       -0.86675256060816        1.15879466966804
H           -0.68935879602202        0.46833198273107        1.42912530076782
H           -0.44770922744883       -1.67398917624288       -0.72921484293165
H            0.44788705097688       -1.64646336022626        0.78918400899796
H            0.68875601215557        0.41718495578661       -1.44464879340034
H            1.80102995920990       -0.90751042053049       -1.12758822493631
H            2.72364984803924        1.15272946081400       -0.19381670051501
H            2.29555360729623        0.07052707576794        1.13234532898586
H            1.26252815246547        1.44734256634621        0.74220391352571
