17
 energy: -16.826515208300 gnorm: 0.021518393518 xtb: 6.6.1 (8d0f1dd)
C           -1.87805700000000        0.66043600000000       -0.34226300000000
C           -1.10831400000000       -0.18651300000000        0.66002100000000
C            0.00021100000000       -1.02876400000000        0.01932600000000
C            1.10691300000000       -0.20892200000000       -0.65294400000000
C            1.87921200000000        0.67207800000000        0.31754200000000
H           -2.30687500000000        0.04235900000000       -1.13403200000000
H           -1.23403900000000        1.39977300000000       -0.82240400000000
H           -2.70040600000000        1.20647800000000        0.12788300000000
H           -1.80720700000000       -0.84625100000000        1.19495700000000
H           -0.67870300000000        0.45487900000000        1.44086700000000
H           -0.45173100000000       -1.71065900000000       -0.71365700000000
H            0.45331900000000       -1.68184500000000        0.77729200000000
H            0.67549800000000        0.40506100000000       -1.45439400000000
H            1.80454700000000       -0.88705300000000       -1.16587400000000
H            2.69909100000000        1.20185000000000       -0.17333100000000
H            2.31064900000000        0.08153200000000        1.12826200000000
H            1.23627900000000        1.42649600000000        0.77438700000000
17
 energy: -16.827436327519 gnorm: 0.009510858614 xtb: 6.6.1 (8d0f1dd)
C           -1.87700067541110        0.65889300243455       -0.34465621214275
C           -1.10623780797484       -0.18299932379058        0.66029865838097
C            0.00009642055189       -1.02235960743452        0.01906553705149
C            1.10501906405401       -0.20579758018295       -0.65328302855082
C            1.87800469948637        0.67052296915639        0.32014236368747
H           -2.30182470372155        0.03277667626980       -1.12935665593409
H           -1.23256272228026        1.40042448598702       -0.81412864878659
H           -2.69404624487760        1.19101246501296        0.14221096480660
H           -1.80313793831460       -0.85688784612232        1.17200392927533
H           -0.67736913045721        0.46404700749758        1.43147670160712
H           -0.44900250964103       -1.68987251924660       -0.72473869178364
H            0.45036356206260       -1.66070689060614        0.78731163659145
H            0.67440024809373        0.41403590711805       -1.44544363955233
H            1.80085646669017       -0.89703083822906       -1.14272943853968
H            2.69295427844185        1.18627146401962       -0.18701775152781
H            2.30561750591847        0.07169491642728        1.12430798937149
H            1.23425648737908        1.42691071168894        0.76617428604579
17
 energy: -16.827559366204 gnorm: 0.001908854197 xtb: 6.6.1 (8d0f1dd)
C           -1.88028521985004        0.65982686945846       -0.34498202076666
C           -1.10715229944422       -0.18274767807335        0.66048178884400
C            0.00010317458989       -1.01972010138277        0.01894072149382
C            1.10610871046177       -0.20571377683155       -0.65352770707194
C            1.88111227389159        0.67135584364879        0.32054184885976
H           -2.29970135554187        0.03014186934208       -1.12727702986440
H           -1.23690858166015        1.40276289658658       -0.80939735763495
H           -2.69670122426209        1.18333849269849        0.14828807449948
H           -1.80191233361162       -0.86241043908882        1.16155213932367
H           -0.68007290255429        0.46586550818575        1.42726837845071
H           -0.44864366245797       -1.68039130041586       -0.72787278183039
H            0.44977021786249       -1.65138019672090        0.78990922969259
H            0.67747721081075        0.41576521771422       -1.44159290992431
H            1.79999297833688       -0.90235743115471       -1.13197373084066
H            2.69559090737930        1.17855737079476       -0.19261561040214
H            2.30340426840395        0.06903148634261        1.12260609034001
H            1.23820483764563        1.42901036889622        0.76128887683139
17
 energy: -16.827576000956 gnorm: 0.001177010793 xtb: 6.6.1 (8d0f1dd)
C           -1.88443318525347        0.66022377325365       -0.34463801631539
C           -1.10859858508670       -0.18265458505373        0.66104144771445
C            0.00008278245328       -1.01833908860455        0.01879498301948
C            1.10774407208675       -0.20577307038615       -0.65408367629575
C            1.88514316214267        0.67173889259070        0.32024511881846
H           -2.29982839432159        0.03034987532532       -1.12835965917716
H           -1.24314658013345        1.40646254086720       -0.80578896651311
H           -2.70293075272144        1.17826805106611        0.15004598000122
H           -1.80246552184849       -0.86438651707691        1.15863418041461
H           -0.68379335285121        0.46581562699840        1.42826794816230
H           -0.44849092526076       -1.67799432004055       -0.72807128773710
H            0.44939217594663       -1.64922860278005        0.78968309116017
H            0.68161547008564        0.41544548746981       -1.44280846234983
H            1.80085743006772       -0.90445169830769       -1.12870890358408
H            2.70177106433372        1.17355478810846       -0.19392308205479
H            2.30332819007615        0.06939075860125        1.12387177650809
H            1.24413995028456        1.43251308796872        0.75743552822843
17
 energy: -16.827587648274 gnorm: 0.001186332452 xtb: 6.6.1 (8d0f1dd)
C           -1.88868400604835        0.66027558061180       -0.34372142987785
C           -1.11029252517033       -0.18249016682807        0.66090045396113
C            0.00007697908465       -1.01657133965100        0.01863879396953
C            1.10965863050109       -0.20573068647385       -0.65397448521789
C            1.88924785413615        0.67177796850536        0.31943922671274
H           -2.29939950675323        0.03100710846659       -1.13051639886704
H           -1.25078177353748        1.41186070822005       -0.80127139943663
H           -2.71129902982315        1.17192363808666        0.15115216578480
H           -1.80320577989068       -0.86597780827712        1.15764684977433
H           -0.68771792649266        0.46587060729273        1.42969966571552
H           -0.44823751699320       -1.67675509836855       -0.72816055282425
H            0.44891395897583       -1.64840087372634        0.78926981277778
H            0.68607802874624        0.41517998987841       -1.44456701201598
H            1.80197582909864       -0.90627096996512       -1.12726297354771
H            2.71006773069265        1.16723718985131       -0.19450828432536
H            2.30258348955634        0.07026071167494        1.12630963316478
H            1.25140256391749        1.43773844070219        0.75256393425209
17
 energy: -16.827594452660 gnorm: 0.000494861072 xtb: 6.6.1 (8d0f1dd)
C           -1.89158847874203        0.65963157267073       -0.34287814935657
C           -1.11101447434185       -0.18184385188906        0.66053510920747
C            0.00003151897587       -1.01477239609139        0.01844290988668
C            1.11059909614426       -0.20520637794221       -0.65362360978367
C            1.89201698565712        0.67117595474369        0.31874053849459
H           -2.29713684005924        0.03110560842462       -1.13312129478172
H           -1.25750421610744        1.41700052745384       -0.79632878508376
H           -2.71860205041407        1.16453705863173        0.15187651697582
H           -1.80264881231939       -0.86697248896810        1.15737679066529
H           -0.68956138752349        0.46687043077605        1.42995118807575
H           -0.44777192334318       -1.67512920466342       -0.72885912834993
H            0.44817483024976       -1.64716283819488        0.78935118340527
H            0.68847224895832        0.41589078421280       -1.44513251788158
H            1.80181376576579       -0.90749030472154       -1.12652798874676
H            2.71740406487790        1.15985863786882       -0.19466772995957
H            2.29992190108959        0.07062693191188        1.12927073536632
H            1.25778077113210        1.44281495577642        0.74723223186636
17
 energy: -16.827598391260 gnorm: 0.000352326621 xtb: 6.6.1 (8d0f1dd)
C           -1.89327499330269        0.65889149957042       -0.34225184852248
C           -1.11113431967864       -0.18122793202880        0.66043310621875
C            0.00002549881225       -1.01368138927130        0.01830158571439
C            1.11090026575455       -0.20466160678394       -0.65357925607116
C            1.89355668138060        0.67046346069111        0.31827500342204
H           -2.29321982815275        0.03072466202070       -1.13576800907829
H           -1.26250293340738        1.42149120842252       -0.79174193631328
H           -2.72477783179722        1.15750475276805        0.15156545558678
H           -1.80152357792076       -0.86676401582020        1.15878686838468
H           -0.68936623677728        0.46832587895973        1.42912371181944
H           -0.44769791701314       -1.67399024769470       -0.72921932736190
H            0.44789291705813       -1.64646239245873        0.78918269882621
H            0.68875887054220        0.41719108348190       -1.44464566105353
H            1.80103864691312       -0.90749902234411       -1.12758352201862
H            2.72364448885589        1.15274406005107       -0.19380518128576
H            2.29554928534102        0.07053711892803        1.13235346508361
H            1.26251798339211        1.44734788150822        0.74221084664909
