 Entering Gaussian System
 *********************************************
 Gaussian 98:
 frequency output generated by the xtb code
 *********************************************
                         Standard orientation:
 --------------------------------------------------------------------
  Center     Atomic     Atomic              Coordinates (Angstroms)
  Number     Number      Type              X           Y           Z
 --------------------------------------------------------------------
    1          6             0       -5.738124    1.177239    0.140501
    2          6             0       -4.303140    1.076380   -0.362132
    3          6             0       -3.574301   -0.129906    0.225121
    4          6             0       -2.131944   -0.218707   -0.267498
    5          6             0       -1.398561   -1.421580    0.321520
    6          6             0        0.029282   -1.576465   -0.204106
    7          6             0        0.965818   -0.460565    0.253277
    8          6             0        2.398255   -0.683843   -0.225435
    9          6             0        3.327291    0.444410    0.215809
   10          6             0        4.758178    0.241770   -0.275603
   11          6             0        5.672492    1.381118    0.158600
   12          1             0       -6.299123    0.284076   -0.125964
   13          1             0       -6.237299    2.039399   -0.295714
   14          1             0       -5.756127    1.281320    1.223264
   15          1             0       -4.304804    0.999531   -1.451905
   16          1             0       -3.761704    1.987470   -0.096729
   17          1             0       -4.108967   -1.043090   -0.047311
   18          1             0       -3.578953   -0.058512    1.315491
   19          1             0       -1.611534    0.700852    0.005074
   20          1             0       -2.127039   -0.292843   -1.357704
   21          1             0       -1.960900   -2.326817    0.078814
   22          1             0       -1.373702   -1.332135    1.410184
   23          1             0        0.009910   -1.606678   -1.296129
   24          1             0        0.428761   -2.532388    0.144040
   25          1             0        0.954417   -0.405431    1.344482
   26          1             0        0.613548    0.497814   -0.131492
   27          1             0        2.769607   -1.633710    0.166760
   28          1             0        2.406794   -0.752624   -1.315982
   29          1             0        2.947022    1.394144   -0.168388
   30          1             0        3.325988    0.506790    1.306716
   31          1             0        5.143554   -0.702809    0.115006
   32          1             0        4.757655    0.172354   -1.365855
   33          1             0        5.312203    2.329139   -0.235208
   34          1             0        6.685054    1.221066   -0.204345
   35          1             0        5.703516    1.452355    1.243731
 --------------------------------------------------------------------
     1 basis functions        1 primitive gaussians
     1 alpha electrons        1 beta electrons
 
 Harmonic frequencies (cm**-1), IR intensities (km*mol⁻¹),
 Raman scattering activities (A**4/amu), Raman depolarization ratios,
 reduced masses (AMU), force constants (mDyne/A) and normal coordinates:
                      1                      2                      3
                        a                      a                      a 
 Frequencies --    33.3132                34.3453                35.2812
 Red. masses --     7.8828                 7.5503                 5.6590
 Frc consts  --     0.0000                 0.0000                 0.0000
 IR Inten    --     0.0033                 0.0041                 0.0034
 Raman Activ --     0.0000                 0.0000                 0.0000
 Depolar     --     0.0000                 0.0000                 0.0000
 Atom AN      X      Y      Z        X      Y      Z        X      Y      Z
   1   6     0.18   0.24  -0.08     0.22   0.26   0.22     0.07   0.13   0.27
   2   6     0.17   0.08  -0.06     0.14   0.07   0.04    -0.14  -0.21  -0.25
   3   6     0.05   0.02  -0.04     0.06  -0.02  -0.04     0.04   0.08   0.12
   4   6     0.05  -0.10  -0.02     0.02  -0.15  -0.13    -0.11  -0.17  -0.26
   5   6    -0.03  -0.14   0.00    -0.02  -0.16  -0.12     0.02   0.04   0.01
   6   6    -0.01  -0.16   0.07     0.00  -0.16  -0.07     0.01   0.03  -0.01
   7   6     0.02  -0.26   0.28    -0.07  -0.07  -0.16     0.01   0.04  -0.04
   8   6    -0.04  -0.05   0.01     0.01  -0.14   0.12    -0.01   0.08  -0.11
   9   6    -0.05  -0.11   0.18    -0.14   0.07  -0.11     0.02   0.00   0.03
  10   6    -0.15   0.24  -0.25    -0.02  -0.01   0.26     0.01   0.04  -0.02
  11   6    -0.19   0.20  -0.08    -0.21   0.26  -0.04     0.06  -0.08   0.20
  12   1     0.03   0.08  -0.02     0.02   0.10   0.09    -0.02   0.00   0.29
  13   1     0.08   0.08  -0.03     0.08   0.09   0.08    -0.02  -0.03  -0.01
  14   1     0.05   0.07  -0.02     0.11   0.08   0.07     0.15   0.22   0.06
  15   1     0.05   0.02  -0.02    -0.00   0.02   0.01    -0.16  -0.23  -0.06
  16   1     0.08   0.01  -0.02     0.08  -0.00  -0.01     0.00  -0.03  -0.28
  17   1    -0.01   0.02  -0.02    -0.01   0.01  -0.00    -0.01  -0.02   0.21
  18   1     0.01   0.01  -0.01     0.04  -0.01  -0.01     0.11   0.18   0.03
  19   1     0.03  -0.04  -0.00     0.03  -0.05  -0.06     0.00  -0.02  -0.22
  20   1     0.02  -0.03  -0.00    -0.02  -0.06  -0.04    -0.12  -0.17  -0.07
  21   1    -0.01  -0.03  -0.02    -0.00  -0.04  -0.04     0.02  -0.02   0.08
  22   1    -0.03  -0.05   0.00    -0.01  -0.04  -0.03     0.02   0.09  -0.00
  23   1     0.02  -0.00   0.02     0.01  -0.08  -0.02    -0.00   0.00  -0.00
  24   1    -0.02  -0.07  -0.01     0.01  -0.03   0.02     0.01   0.01   0.00
  25   1     0.05  -0.17   0.09    -0.07   0.05  -0.05     0.02   0.00  -0.01
  26   1    -0.02  -0.05   0.17    -0.00  -0.04  -0.12    -0.01   0.01   0.00
  27   1     0.02  -0.04  -0.09     0.01   0.00   0.14    -0.00   0.01  -0.07
  28   1    -0.06   0.07  -0.00     0.05  -0.14   0.04    -0.01   0.07  -0.03
  29   1    -0.07  -0.00   0.18    -0.03  -0.03  -0.15     0.01   0.02   0.05
  30   1     0.06  -0.14   0.06    -0.11   0.14  -0.04     0.01  -0.05   0.01
  31   1     0.02   0.04  -0.20    -0.00   0.06   0.22    -0.01  -0.01  -0.06
  32   1    -0.12   0.18  -0.08     0.06  -0.14   0.08     0.00   0.07  -0.01
  33   1    -0.12   0.09   0.10    -0.06   0.02  -0.16     0.03   0.00   0.12
  34   1    -0.08   0.13  -0.12    -0.04   0.05   0.07     0.01  -0.01   0.05
  35   1     0.03  -0.05  -0.02    -0.13   0.21  -0.02     0.02  -0.09   0.06
                      4                      5                      6
                        a                      a                      a 
 Frequencies --    70.0802                86.8229               109.0891
 Red. masses --     8.6406                 8.3599                 6.4472
 Frc consts  --     0.0000                 0.0000                 0.0000
 IR Inten    --     0.0076                 0.0148                 0.0135
 Raman Activ --     0.0000                 0.0000                 0.0000
 Depolar     --     0.0000                 0.0000                 0.0000
 Atom AN      X      Y      Z        X      Y      Z        X      Y      Z
   1   6    -0.10  -0.10   0.16    -0.08  -0.11  -0.19     0.06   0.13  -0.07
   2   6    -0.17  -0.04  -0.07    -0.03  -0.03  -0.06     0.05  -0.08  -0.06
   3   6    -0.01   0.06  -0.06     0.13   0.27   0.36    -0.05  -0.10   0.04
   4   6    -0.04   0.12  -0.16     0.09   0.20   0.24    -0.01  -0.07   0.14
   5   6    -0.03   0.08  -0.25     0.02   0.04   0.00    -0.00  -0.14  -0.02
   6   6     0.01   0.15  -0.15    -0.06  -0.05  -0.19     0.01   0.05  -0.04
   7   6     0.06  -0.06   0.26     0.07  -0.20  -0.11     0.01  -0.10   0.32
   8   6     0.07  -0.07   0.29     0.05  -0.18  -0.16    -0.12   0.28  -0.24
   9   6     0.12  -0.10   0.27    -0.02  -0.16  -0.06    -0.07   0.21  -0.16
  10   6     0.06  -0.11   0.11     0.05  -0.01   0.09     0.00  -0.11   0.17
  11   6     0.04   0.09  -0.38    -0.20   0.20   0.09     0.08  -0.09  -0.05
  12   1    -0.02  -0.05   0.10     0.03  -0.09   0.03    -0.01   0.04   0.02
  13   1    -0.07  -0.06   0.04    -0.06  -0.11  -0.16     0.05   0.04  -0.05
  14   1     0.02   0.01   0.04    -0.05   0.08  -0.07     0.02   0.08  -0.02
  15   1    -0.10  -0.04  -0.02     0.01  -0.11  -0.01     0.01  -0.05  -0.01
  16   1    -0.06   0.01  -0.07    -0.06   0.04  -0.10     0.04  -0.03  -0.04
  17   1     0.01  -0.00   0.01     0.05   0.04   0.21    -0.01  -0.03  -0.00
  18   1     0.02   0.04  -0.02     0.06   0.19   0.10    -0.04  -0.03   0.01
  19   1    -0.01   0.03  -0.04     0.06   0.03   0.09    -0.01  -0.03   0.08
  20   1    -0.03   0.05  -0.05    -0.01   0.09   0.07     0.01   0.02   0.04
  21   1     0.00   0.03  -0.11    -0.03   0.04  -0.02     0.01  -0.04  -0.05
  22   1    -0.03  -0.01  -0.07     0.05  -0.03   0.00    -0.01  -0.09  -0.00
  23   1     0.03   0.14  -0.05    -0.05   0.03  -0.06     0.00   0.12  -0.02
  24   1    -0.02   0.01  -0.11    -0.03  -0.04  -0.11     0.01  -0.02  -0.11
  25   1    -0.00  -0.11   0.08     0.03  -0.10  -0.03     0.10  -0.21   0.10
  26   1     0.05   0.02   0.15     0.03  -0.04   0.01    -0.06   0.02   0.28
  27   1     0.01  -0.03   0.08     0.02  -0.06  -0.07     0.04   0.05  -0.21
  28   1     0.02  -0.01   0.08     0.01  -0.03  -0.05    -0.14   0.20  -0.08
  29   1     0.03  -0.02   0.10    -0.01  -0.05  -0.02     0.04   0.07  -0.09
  30   1     0.06  -0.04   0.08    -0.04  -0.05  -0.02    -0.08   0.09  -0.05
  31   1     0.06   0.01   0.09     0.05   0.03   0.07    -0.05  -0.01   0.16
  32   1    -0.03  -0.12   0.04     0.05  -0.03   0.03     0.06  -0.14   0.05
  33   1    -0.02  -0.02  -0.18    -0.09   0.03  -0.02     0.11  -0.06  -0.17
  34   1    -0.00   0.01  -0.14    -0.03   0.09   0.07     0.05  -0.13   0.10
  35   1     0.05   0.13  -0.12    -0.11   0.10   0.02    -0.07   0.11  -0.02
                      7                      8                      9
                        a                      a                      a 
 Frequencies --   116.4900               127.1206               130.0714
 Red. masses --     6.1780                 8.2496                 8.0758
 Frc consts  --     0.0000                 0.0000                 0.0000
 IR Inten    --     0.0035                 0.0811                 0.0368
 Raman Activ --     0.0000                 0.0000                 0.0000
 Depolar     --     0.0000                 0.0000                 0.0000
 Atom AN      X      Y      Z        X      Y      Z        X      Y      Z
   1   6     0.09   0.14   0.10     0.02  -0.01  -0.23    -0.04  -0.17   0.10
   2   6    -0.05  -0.20  -0.24     0.15   0.01   0.13    -0.06   0.08  -0.01
   3   6    -0.05  -0.13  -0.09     0.11   0.10   0.37     0.10   0.15  -0.07
   4   6     0.13   0.20   0.38    -0.05  -0.18  -0.02     0.07   0.13  -0.15
   5   6    -0.01  -0.11  -0.08    -0.01  -0.24  -0.20    -0.04   0.07  -0.11
   6   6     0.01   0.01  -0.07     0.03   0.04  -0.17     0.01  -0.06   0.08
   7   6    -0.07   0.08  -0.08    -0.14   0.13  -0.02     0.07  -0.21   0.30
   8   6    -0.00  -0.03   0.17    -0.06   0.11   0.26     0.04  -0.15   0.19
   9   6    -0.04   0.06  -0.01    -0.07   0.19   0.09    -0.11   0.20  -0.38
  10   6    -0.07   0.05  -0.10    -0.14   0.04  -0.06    -0.05   0.09  -0.17
  11   6     0.04  -0.08   0.01     0.13  -0.17  -0.09     0.01  -0.10   0.19
  12   1    -0.01   0.01   0.20     0.04  -0.01  -0.09     0.03  -0.07   0.03
  13   1     0.01  -0.01  -0.05     0.03  -0.02  -0.12    -0.06  -0.07   0.05
  14   1     0.12   0.20   0.01    -0.07   0.02  -0.07     0.01  -0.06   0.03
  15   1    -0.09  -0.15  -0.06     0.11  -0.03   0.04    -0.03   0.03  -0.00
  16   1     0.04  -0.06  -0.18     0.01   0.02   0.04    -0.05   0.04  -0.00
  17   1     0.06  -0.06  -0.10    -0.02   0.02   0.22     0.03   0.03  -0.00
  18   1    -0.12  -0.06  -0.02     0.11   0.13   0.10     0.05   0.05  -0.02
  19   1    -0.00   0.02   0.32     0.05  -0.07  -0.06     0.04   0.03  -0.05
  20   1     0.15   0.24   0.10    -0.11  -0.07  -0.00     0.01   0.03  -0.04
  21   1    -0.01   0.01  -0.15     0.02  -0.07  -0.12    -0.03   0.03  -0.05
  22   1    -0.02  -0.17  -0.01    -0.02  -0.13  -0.05    -0.05   0.01  -0.03
  23   1     0.00   0.01  -0.02     0.02   0.05  -0.05     0.04   0.02   0.02
  24   1     0.02   0.01  -0.02     0.05   0.02  -0.08    -0.04  -0.04   0.01
  25   1    -0.07   0.07  -0.03    -0.11   0.06  -0.01     0.03  -0.12   0.09
  26   1     0.00   0.01  -0.09    -0.03   0.03  -0.05     0.03  -0.03   0.15
  27   1    -0.02   0.02   0.13    -0.03   0.06   0.15     0.08   0.02   0.15
  28   1     0.04  -0.09   0.05     0.03  -0.04   0.08    -0.03  -0.16   0.06
  29   1    -0.03   0.00  -0.02    -0.03   0.04   0.00    -0.06  -0.01  -0.26
  30   1     0.01   0.05  -0.00     0.01   0.09   0.02    -0.05   0.22  -0.12
  31   1    -0.03  -0.01  -0.07    -0.07  -0.02  -0.05    -0.07  -0.00  -0.07
  32   1    -0.04   0.06  -0.03    -0.08   0.03  -0.02     0.04   0.07  -0.05
  33   1     0.01   0.00   0.07     0.06  -0.02   0.03     0.05   0.01   0.10
  34   1    -0.00  -0.02  -0.04     0.01  -0.09  -0.09     0.01  -0.04   0.08
  35   1     0.05  -0.09   0.01     0.10  -0.09  -0.02    -0.04  -0.10   0.06
                     10                     11                     12
                        a                      a                      a 
 Frequencies --   162.9139               231.1229               233.1353
 Red. masses --     8.4758                 3.6825                 2.1570
 Frc consts  --     0.0000                 0.0000                 0.0000
 IR Inten    --     0.0529                 0.0022                 0.0022
 Raman Activ --     0.0000                 0.0000                 0.0000
 Depolar     --     0.0000                 0.0000                 0.0000
 Atom AN      X      Y      Z        X      Y      Z        X      Y      Z
   1   6     0.13  -0.29   0.13    -0.13   0.05  -0.04     0.00  -0.02  -0.01
   2   6     0.09   0.08  -0.07    -0.03   0.14   0.19     0.04   0.07   0.08
   3   6     0.28   0.20  -0.09    -0.10  -0.02  -0.04    -0.01  -0.03  -0.06
   4   6     0.26   0.16  -0.08    -0.09  -0.05  -0.06    -0.01  -0.02  -0.03
   5   6    -0.04  -0.02  -0.08    -0.10  -0.11  -0.14     0.01   0.01   0.03
   6   6     0.02  -0.18   0.20     0.04  -0.10   0.16    -0.01   0.00  -0.01
   7   6    -0.16   0.06  -0.05     0.03  -0.01   0.00     0.00  -0.01   0.01
   8   6    -0.19   0.20  -0.13     0.05  -0.00  -0.02    -0.02   0.04  -0.07
   9   6    -0.14   0.03   0.16     0.12  -0.04   0.01    -0.04   0.06  -0.10
  10   6    -0.19  -0.07   0.09     0.11   0.08  -0.09     0.04  -0.12   0.21
  11   6    -0.07  -0.11  -0.10     0.10   0.06   0.03    -0.01   0.02  -0.04
  12   1     0.11  -0.14   0.08     0.11  -0.17   0.30     0.08  -0.11   0.17
  13   1    -0.06  -0.14   0.04    -0.16  -0.22  -0.35    -0.07  -0.14  -0.18
  14   1     0.08  -0.07   0.04    -0.09   0.42  -0.05    -0.02   0.21  -0.02
  15   1    -0.00   0.02  -0.02     0.04   0.10   0.05     0.04   0.06   0.02
  16   1    -0.02   0.05  -0.04    -0.02   0.03   0.13     0.01   0.01   0.07
  17   1     0.09   0.04  -0.00    -0.05   0.02  -0.07    -0.01   0.01  -0.06
  18   1     0.09   0.07  -0.03    -0.03  -0.07  -0.01    -0.01  -0.06  -0.01
  19   1     0.10   0.02   0.02    -0.02  -0.02   0.00    -0.01  -0.00  -0.02
  20   1     0.10   0.07  -0.02    -0.03   0.01  -0.02     0.00  -0.02  -0.01
  21   1    -0.04   0.03  -0.08    -0.00  -0.03  -0.11     0.00  -0.00   0.03
  22   1    -0.07  -0.03  -0.02    -0.09  -0.08  -0.03     0.01   0.02   0.01
  23   1     0.06  -0.16   0.06     0.07  -0.11   0.05    -0.01   0.01  -0.00
  24   1     0.01  -0.01   0.17    -0.00  -0.01   0.13    -0.00  -0.00  -0.01
  25   1    -0.03   0.07  -0.02     0.02   0.04  -0.00     0.02  -0.03   0.01
  26   1    -0.09  -0.02  -0.05    -0.00  -0.02  -0.03    -0.01   0.00   0.03
  27   1    -0.05   0.02  -0.12     0.01  -0.01  -0.02     0.01   0.01  -0.03
  28   1    -0.06   0.15  -0.04     0.01   0.01  -0.01    -0.02   0.02  -0.02
  29   1    -0.01   0.04   0.11     0.02   0.00   0.04     0.03   0.00  -0.11
  30   1    -0.04  -0.06   0.05     0.06  -0.05   0.00    -0.07   0.09  -0.03
  31   1    -0.06  -0.02   0.04     0.05   0.01  -0.06    -0.00  -0.00   0.15
  32   1    -0.08  -0.05   0.03     0.03   0.06  -0.03     0.05  -0.12   0.07
  33   1     0.01  -0.04  -0.07     0.14   0.00  -0.13    -0.30   0.04   0.33
  34   1    -0.03  -0.08  -0.02     0.07  -0.07   0.17    -0.11   0.24  -0.42
  35   1    -0.01   0.02  -0.03    -0.13   0.11   0.01     0.39  -0.23  -0.01
                     13                     14                     15
                        a                      a                      a 
 Frequencies --   238.1670               255.2726               324.3849
 Red. masses --     6.4103                 8.8334                 8.8566
 Frc consts  --     0.0000                 0.0000                 0.0000
 IR Inten    --     0.0010                 0.0410                 0.0240
 Raman Activ --     0.0000                 0.0000                 0.0000
 Depolar     --     0.0000                 0.0000                 0.0000
 Atom AN      X      Y      Z        X      Y      Z        X      Y      Z
   1   6    -0.18   0.11  -0.00    -0.09   0.04   0.02     0.14  -0.21   0.10
   2   6    -0.19  -0.01  -0.05    -0.09   0.06  -0.01     0.06   0.29  -0.23
   3   6    -0.07   0.12   0.11    -0.06   0.04  -0.05    -0.10   0.23  -0.13
   4   6    -0.07   0.03   0.03    -0.01   0.04   0.04    -0.07  -0.23   0.16
   5   6    -0.16  -0.19  -0.24     0.02   0.07   0.14    -0.17  -0.29   0.19
   6   6     0.06  -0.21   0.26    -0.10  -0.31  -0.15    -0.20   0.07  -0.08
   7   6     0.04  -0.04  -0.00     0.03  -0.37  -0.20    -0.12   0.04  -0.01
   8   6     0.06   0.05  -0.11     0.15   0.01  -0.01    -0.05   0.01   0.03
   9   6     0.14   0.01  -0.06    -0.12   0.23   0.18     0.13  -0.05  -0.05
  10   6     0.21   0.03   0.06    -0.11   0.23   0.15     0.20   0.06  -0.02
  11   6     0.17   0.11   0.00     0.36  -0.03  -0.11     0.16   0.11   0.02
  12   1    -0.14   0.14  -0.17    -0.02   0.01   0.01     0.13  -0.12   0.04
  13   1     0.04   0.17   0.16    -0.03   0.01   0.00    -0.10  -0.10   0.11
  14   1    -0.05  -0.17   0.02    -0.02   0.02   0.00     0.12  -0.12   0.04
  15   1    -0.08  -0.06  -0.01    -0.03   0.03  -0.00    -0.01   0.09  -0.07
  16   1    -0.05   0.01  -0.07    -0.03   0.02   0.00    -0.01   0.09  -0.06
  17   1    -0.02   0.01   0.10    -0.01   0.01  -0.03    -0.08   0.10  -0.03
  18   1     0.01   0.10   0.03    -0.03  -0.00  -0.01    -0.08   0.10  -0.04
  19   1     0.01  -0.03   0.06    -0.01   0.02  -0.00     0.03  -0.10   0.05
  20   1    -0.03   0.08   0.00     0.01  -0.01   0.01     0.02  -0.09   0.05
  21   1    -0.02  -0.03  -0.22    -0.06   0.03   0.15    -0.02  -0.09   0.04
  22   1    -0.16  -0.17  -0.06     0.09   0.10   0.03    -0.03  -0.11   0.06
  23   1     0.11  -0.19   0.08    -0.08  -0.09  -0.04    -0.13   0.11  -0.02
  24   1    -0.01  -0.02   0.22    -0.07  -0.11  -0.05     0.00   0.00  -0.14
  25   1     0.04   0.04  -0.00    -0.01  -0.12  -0.06    -0.05  -0.00  -0.00
  26   1    -0.02  -0.04  -0.04    -0.02  -0.11  -0.05    -0.02   0.02   0.01
  27   1     0.03   0.00  -0.06     0.10   0.03  -0.00    -0.04  -0.00   0.02
  28   1    -0.00   0.04  -0.03     0.10   0.02  -0.00    -0.02  -0.02   0.01
  29   1     0.06   0.01  -0.03    -0.06   0.05   0.05     0.05  -0.01  -0.01
  30   1     0.02   0.01  -0.02    -0.06   0.05   0.05     0.05  -0.01  -0.02
  31   1     0.07   0.02   0.05    -0.07   0.05   0.04     0.08   0.02  -0.01
  32   1     0.08  -0.02   0.02    -0.07   0.05   0.04     0.07   0.02  -0.01
  33   1    -0.04   0.04   0.09     0.20   0.02  -0.05     0.04   0.03   0.01
  34   1     0.02   0.10  -0.11     0.06  -0.15  -0.08     0.05   0.04   0.01
  35   1     0.16  -0.03   0.00     0.18   0.03  -0.04     0.04   0.03   0.01
                     16                     17                     18
                        a                      a                      a 
 Frequencies --   380.3726               420.0555               450.1118
 Red. masses --     9.6395                 8.8077                 8.9431
 Frc consts  --     0.0000                 0.0000                 0.0000
 IR Inten    --     0.0570                 0.2101                 0.2377
 Raman Activ --     0.0000                 0.0000                 0.0000
 Depolar     --     0.0000                 0.0000                 0.0000
 Atom AN      X      Y      Z        X      Y      Z        X      Y      Z
   1   6    -0.29   0.09   0.05    -0.14   0.09  -0.01    -0.25   0.13   0.00
   2   6    -0.25   0.22  -0.07    -0.09  -0.06   0.08    -0.15  -0.07   0.11
   3   6    -0.04   0.20  -0.13     0.14  -0.01  -0.05     0.27   0.02  -0.12
   4   6     0.11  -0.21   0.11     0.17   0.05  -0.05     0.32  -0.07  -0.08
   5   6     0.29  -0.23   0.09     0.05   0.01   0.08     0.06  -0.15   0.11
   6   6     0.31  -0.02  -0.05    -0.09  -0.29  -0.17    -0.01   0.12   0.01
   7   6     0.19   0.04  -0.03    -0.31  -0.11   0.01    -0.13   0.14   0.08
   8   6     0.15   0.07   0.00    -0.15   0.30   0.21    -0.24  -0.21  -0.07
   9   6    -0.03   0.10   0.06     0.28   0.08  -0.02    -0.15  -0.23  -0.10
  10   6    -0.16  -0.13  -0.04     0.26  -0.16  -0.16     0.01   0.18   0.10
  11   6    -0.26  -0.13  -0.01    -0.08   0.04   0.04     0.25   0.11   0.00
  12   1    -0.07   0.02   0.01    -0.07   0.05  -0.01    -0.12   0.07  -0.01
  13   1    -0.10   0.02   0.03     0.02   0.04  -0.04     0.02   0.06  -0.05
  14   1    -0.07   0.02   0.01    -0.07   0.05  -0.01    -0.12   0.07  -0.00
  15   1    -0.10   0.08  -0.02    -0.03  -0.01   0.02    -0.06  -0.00   0.03
  16   1    -0.10   0.08  -0.02    -0.03  -0.01   0.02    -0.07  -0.00   0.02
  17   1    -0.03   0.07  -0.03     0.07  -0.02  -0.02     0.11  -0.02  -0.03
  18   1    -0.04   0.07  -0.04     0.06  -0.02  -0.01     0.11  -0.02  -0.03
  19   1     0.06  -0.07   0.03     0.04   0.02  -0.02     0.12  -0.04  -0.02
  20   1     0.06  -0.08   0.03     0.06  -0.00  -0.01     0.13  -0.05  -0.02
  21   1     0.12  -0.09   0.03    -0.07   0.02   0.14     0.02  -0.04   0.02
  22   1     0.12  -0.08   0.02     0.10   0.09   0.01     0.01  -0.04   0.03
  23   1     0.07   0.02  -0.01    -0.05  -0.07  -0.05    -0.04   0.11   0.00
  24   1     0.13   0.00  -0.04    -0.02  -0.08  -0.06     0.07   0.03  -0.08
  25   1     0.05   0.01  -0.01    -0.16  -0.06   0.01    -0.02   0.04   0.02
  26   1     0.05   0.00  -0.01    -0.15  -0.05   0.01    -0.01   0.05   0.02
  27   1     0.06   0.03   0.00    -0.05   0.08   0.05    -0.12  -0.07  -0.01
  28   1     0.06   0.03   0.00    -0.05   0.08   0.06    -0.11  -0.08  -0.02
  29   1    -0.00   0.03   0.02     0.15   0.05  -0.00    -0.08  -0.08  -0.02
  30   1     0.00   0.03   0.02     0.15   0.05  -0.01    -0.08  -0.08  -0.03
  31   1    -0.07  -0.04  -0.01     0.09  -0.04  -0.04     0.03   0.06   0.02
  32   1    -0.07  -0.04  -0.01     0.09  -0.04  -0.05     0.03   0.05   0.03
  33   1    -0.10  -0.05  -0.00    -0.10  -0.01   0.02     0.13   0.05  -0.01
  34   1    -0.06   0.00   0.02     0.02   0.13   0.07     0.04  -0.06  -0.05
  35   1    -0.10  -0.05  -0.00    -0.10  -0.01   0.02     0.13   0.05  -0.00
                     19                     20                     21
                        a                      a                      a 
 Frequencies --   529.3282               765.3877               770.8126
 Red. masses --     8.6600                 1.8817                 1.6946
 Frc consts  --     0.0000                 0.0000                 0.0000
 IR Inten    --     0.5406                15.4129                 6.9272
 Raman Activ --     0.0000                 0.0000                 0.0000
 Depolar     --     0.0000                 0.0000                 0.0000
 Atom AN      X      Y      Z        X      Y      Z        X      Y      Z
   1   6     0.06  -0.04   0.00    -0.01  -0.00   0.00     0.00   0.00   0.00
   2   6     0.02   0.12  -0.10    -0.01  -0.03  -0.03     0.02   0.04   0.05
   3   6    -0.23   0.02   0.08     0.01  -0.04  -0.08     0.03   0.05   0.08
   4   6    -0.16   0.02   0.11    -0.02  -0.10  -0.07     0.03   0.05   0.07
   5   6     0.38   0.13  -0.16    -0.08  -0.06  -0.05     0.03   0.03   0.03
   6   6     0.34  -0.18  -0.12    -0.07   0.07  -0.06     0.01  -0.00  -0.00
   7   6    -0.19   0.04   0.12    -0.00   0.10  -0.08    -0.02   0.01  -0.06
   8   6    -0.29  -0.06   0.04     0.02   0.03  -0.08    -0.04   0.06  -0.08
   9   6    -0.08  -0.19  -0.09    -0.00   0.03  -0.04    -0.03   0.06  -0.10
  10   6     0.04   0.07   0.03    -0.01   0.01  -0.01    -0.02   0.04  -0.07
  11   6     0.13   0.08   0.01    -0.01  -0.01  -0.00     0.00   0.00  -0.01
  12   1     0.06  -0.04   0.01    -0.04   0.01   0.04     0.05  -0.01  -0.05
  13   1    -0.05  -0.03   0.04     0.01   0.01   0.00    -0.01  -0.01  -0.02
  14   1     0.06  -0.04   0.00     0.04   0.02  -0.00    -0.07  -0.03   0.00
  15   1     0.01   0.02  -0.03     0.05   0.13  -0.02    -0.07  -0.18   0.02
  16   1     0.01   0.03  -0.03    -0.00  -0.05   0.14     0.01   0.06  -0.18
  17   1    -0.09   0.03   0.01    -0.06  -0.05   0.23     0.06   0.06  -0.25
  18   1    -0.11   0.02   0.02     0.16   0.20  -0.03    -0.14  -0.22   0.03
  19   1    -0.10   0.04   0.03    -0.03  -0.10   0.30     0.05   0.06  -0.22
  20   1    -0.09   0.04   0.03     0.17   0.24  -0.03    -0.13  -0.19   0.03
  21   1     0.08   0.02   0.09    -0.00  -0.09   0.21    -0.00   0.05  -0.12
  22   1     0.22   0.10  -0.05     0.07   0.19  -0.03    -0.03  -0.13   0.02
  23   1     0.21  -0.14  -0.03     0.04  -0.20  -0.01    -0.01  -0.05   0.00
  24   1     0.07  -0.01   0.10     0.02   0.11   0.20     0.01   0.02   0.04
  25   1    -0.09  -0.01   0.03     0.13  -0.27  -0.00     0.08  -0.14  -0.01
  26   1    -0.11  -0.01   0.03    -0.01   0.14   0.28    -0.06   0.04   0.14
  27   1    -0.13  -0.04   0.00    -0.05   0.09   0.23    -0.02   0.12   0.26
  28   1    -0.14  -0.03   0.01     0.12  -0.23  -0.00     0.07  -0.27   0.00
  29   1    -0.03  -0.05  -0.02     0.00   0.07   0.14    -0.04   0.13   0.29
  30   1    -0.03  -0.05  -0.03     0.03  -0.15   0.00     0.11  -0.30  -0.01
  31   1     0.03   0.03   0.01    -0.03   0.02   0.07    -0.07   0.08   0.22
  32   1     0.04   0.02   0.01     0.04  -0.06   0.00     0.12  -0.21  -0.00
  33   1     0.06   0.03   0.00     0.01   0.01   0.02     0.05   0.05   0.07
  34   1     0.02  -0.02  -0.02    -0.00  -0.00   0.00     0.01  -0.01   0.02
  35   1     0.06   0.03   0.00    -0.01  -0.02   0.00    -0.03  -0.09   0.01
                     22                     23                     24
                        a                      a                      a 
 Frequencies --   778.6811               793.6219               825.3810
 Red. masses --     2.1062                 2.3461                 2.8149
 Frc consts  --     0.0000                 0.0000                 0.0000
 IR Inten    --     2.4589                 0.1982                 2.9407
 Raman Activ --     0.0000                 0.0000                 0.0000
 Depolar     --     0.0000                 0.0000                 0.0000
 Atom AN      X      Y      Z        X      Y      Z        X      Y      Z
   1   6     0.00  -0.01  -0.01     0.02   0.02   0.03    -0.02  -0.02  -0.02
   2   6    -0.03  -0.05  -0.08     0.06   0.09   0.14    -0.02  -0.05  -0.06
   3   6    -0.06  -0.06  -0.05     0.02   0.03   0.04     0.06   0.03   0.01
   4   6    -0.02   0.04  -0.04    -0.05  -0.08  -0.12     0.04  -0.04   0.12
   5   6     0.05   0.04   0.03    -0.10  -0.10  -0.10    -0.03   0.00  -0.02
   6   6     0.07  -0.08   0.08    -0.02   0.00   0.00    -0.11   0.13  -0.15
   7   6     0.02  -0.09   0.10     0.05   0.02   0.11    -0.01   0.04  -0.05
   8   6    -0.02   0.00   0.02     0.05  -0.05   0.05     0.06  -0.10   0.15
   9   6    -0.03   0.05  -0.10    -0.00   0.02  -0.03     0.02  -0.03   0.08
  10   6    -0.03   0.07  -0.11    -0.03   0.05  -0.07    -0.04   0.09  -0.15
  11   6    -0.00   0.01  -0.01    -0.01   0.00  -0.02    -0.02   0.03  -0.06
  12   1    -0.07   0.02   0.08     0.14  -0.04  -0.14    -0.09   0.03   0.06
  13   1     0.00   0.02   0.03    -0.02  -0.04  -0.06     0.02   0.03   0.03
  14   1     0.12   0.03  -0.00    -0.20  -0.05   0.01     0.09   0.03  -0.00
  15   1     0.11   0.21  -0.04    -0.18  -0.28   0.06     0.08   0.08  -0.02
  16   1    -0.02  -0.07   0.23     0.07   0.09  -0.31    -0.06  -0.01   0.10
  17   1    -0.02  -0.08   0.21    -0.08   0.09  -0.10     0.07  -0.01  -0.05
  18   1     0.07   0.20  -0.03     0.05  -0.14   0.02    -0.07  -0.01   0.00
  19   1    -0.07   0.04   0.03     0.03  -0.12   0.25     0.08  -0.01  -0.10
  20   1     0.05   0.03  -0.01     0.07   0.26  -0.05    -0.05  -0.12   0.04
  21   1     0.01   0.03  -0.07    -0.02  -0.11   0.27    -0.01   0.00   0.00
  22   1    -0.05  -0.04   0.01     0.08   0.27  -0.05     0.07  -0.04  -0.00
  23   1    -0.04   0.23   0.01     0.05   0.06  -0.00     0.06  -0.27  -0.03
  24   1    -0.01  -0.12  -0.22    -0.01  -0.02  -0.04    -0.03   0.14   0.26
  25   1    -0.06   0.25   0.01    -0.05   0.17   0.02    -0.10  -0.13  -0.01
  26   1    -0.02  -0.14  -0.24     0.07  -0.04  -0.14     0.14   0.10   0.08
  27   1     0.08   0.02  -0.02     0.07  -0.05  -0.13     0.00  -0.15  -0.24
  28   1    -0.10  -0.01   0.00    -0.08   0.11   0.00    -0.04   0.27   0.02
  29   1    -0.09   0.08   0.23    -0.07  -0.00   0.05    -0.11  -0.10  -0.10
  30   1     0.14  -0.21  -0.01     0.07  -0.03  -0.00     0.09   0.17   0.01
  31   1    -0.06   0.12   0.27    -0.03   0.08   0.16     0.03   0.15   0.23
  32   1     0.14  -0.27  -0.01     0.06  -0.16  -0.01     0.03  -0.28  -0.02
  33   1     0.08   0.07   0.10     0.06   0.05   0.07     0.14   0.13   0.15
  34   1     0.01  -0.02   0.04     0.00  -0.02   0.03     0.02  -0.05   0.08
  35   1    -0.05  -0.14   0.01    -0.04  -0.10   0.00    -0.10  -0.22   0.01
                     25                     26                     27
                        a                      a                      a 
 Frequencies --   865.7622               903.4152               936.1297
 Red. masses --     3.2203                 3.5768                 6.3740
 Frc consts  --     0.0000                 0.0000                 0.0000
 IR Inten    --     2.2665                 0.4808                 1.8958
 Raman Activ --     0.0000                 0.0000                 0.0000
 Depolar     --     0.0000                 0.0000                 0.0000
 Atom AN      X      Y      Z        X      Y      Z        X      Y      Z
   1   6    -0.02  -0.07  -0.08     0.01  -0.03  -0.05     0.16  -0.09   0.07
   2   6    -0.04  -0.09  -0.09    -0.02  -0.02  -0.01    -0.03  -0.12   0.09
   3   6     0.08   0.14   0.15    -0.03   0.05   0.10    -0.06   0.14  -0.16
   4   6     0.00   0.03   0.04    -0.04   0.11  -0.12    -0.08   0.11   0.05
   5   6    -0.16  -0.15  -0.15    -0.04  -0.10   0.03    -0.12  -0.07   0.06
   6   6    -0.03  -0.03  -0.04     0.14  -0.18   0.13     0.06  -0.14  -0.11
   7   6     0.06   0.07   0.14     0.00   0.11  -0.08     0.05   0.13   0.06
   8   6     0.05  -0.00  -0.04    -0.02   0.08  -0.10     0.11   0.10   0.05
   9   6    -0.00   0.04  -0.08     0.06  -0.14   0.17     0.23  -0.17  -0.17
  10   6    -0.01  -0.01   0.06    -0.03   0.04  -0.03    -0.14   0.15   0.12
  11   6    -0.01  -0.03   0.04    -0.05   0.06  -0.10    -0.28  -0.05   0.05
  12   1    -0.22   0.07   0.17    -0.07   0.02   0.06    -0.01   0.04  -0.07
  13   1     0.05   0.07   0.08     0.01   0.02   0.04     0.24   0.01  -0.15
  14   1     0.27   0.05  -0.02     0.12   0.01  -0.01    -0.17   0.05   0.00
  15   1     0.22   0.06  -0.03     0.09  -0.03   0.00    -0.13   0.05   0.02
  16   1    -0.18   0.03   0.15    -0.07   0.03   0.02     0.02  -0.05   0.03
  17   1     0.14   0.05  -0.24     0.00   0.04  -0.08     0.00   0.00   0.03
  18   1    -0.19  -0.17   0.05    -0.04  -0.09   0.03    -0.04   0.14  -0.05
  19   1     0.19  -0.09  -0.05     0.01   0.01   0.02    -0.01   0.05  -0.07
  20   1    -0.19   0.04   0.01    -0.06   0.12  -0.04    -0.03  -0.07   0.02
  21   1    -0.10  -0.08   0.26    -0.03  -0.03   0.07    -0.12   0.03   0.04
  22   1     0.13   0.22  -0.06    -0.08   0.09  -0.00     0.04  -0.04   0.02
  23   1     0.11   0.03  -0.01    -0.07   0.19   0.03     0.04  -0.04  -0.03
  24   1    -0.02  -0.01   0.00     0.13  -0.10  -0.22     0.05  -0.02  -0.02
  25   1    -0.00   0.14   0.03     0.21  -0.05  -0.01    -0.02   0.02   0.02
  26   1     0.07  -0.01  -0.08    -0.19   0.01   0.11     0.00   0.03   0.02
  27   1     0.08   0.04   0.02    -0.19   0.00   0.12     0.00   0.01  -0.00
  28   1    -0.06  -0.06  -0.01     0.20  -0.06  -0.02    -0.01   0.02   0.01
  29   1     0.01   0.06   0.09     0.08  -0.11  -0.21     0.08  -0.03  -0.04
  30   1     0.01  -0.12  -0.01    -0.12   0.19   0.03     0.10  -0.04  -0.05
  31   1    -0.06  -0.06  -0.06     0.19   0.11   0.05     0.05   0.07   0.03
  32   1     0.03   0.10   0.01    -0.16  -0.13   0.00     0.07   0.08   0.03
  33   1    -0.07  -0.06  -0.07     0.17   0.15   0.15     0.15   0.05  -0.03
  34   1    -0.02   0.01  -0.05     0.01  -0.08   0.08    -0.19  -0.36  -0.17
  35   1     0.06   0.11  -0.00    -0.11  -0.23  -0.00     0.17   0.05  -0.00
                     28                     29                     30
                        a                      a                      a 
 Frequencies --   942.4306               960.5935               973.1732
 Red. masses --     5.9578                 3.9540                 5.2206
 Frc consts  --     0.0000                 0.0000                 0.0000
 IR Inten    --     5.2650                 0.3487                 0.4923
 Raman Activ --     0.0000                 0.0000                 0.0000
 Depolar     --     0.0000                 0.0000                 0.0000
 Atom AN      X      Y      Z        X      Y      Z        X      Y      Z
   1   6    -0.23   0.21  -0.07     0.01  -0.14  -0.08    -0.04  -0.03   0.04
   2   6     0.04   0.19  -0.15     0.01   0.01   0.08     0.03   0.01  -0.03
   3   6     0.05  -0.30   0.20     0.02   0.13   0.04     0.11   0.01  -0.05
   4   6     0.14  -0.01  -0.05    -0.07  -0.15  -0.12     0.02  -0.25   0.18
   5   6    -0.00   0.02  -0.02     0.18   0.13   0.07     0.10   0.19  -0.19
   6   6    -0.08  -0.02  -0.00     0.00   0.12   0.09    -0.19   0.18   0.04
   7   6    -0.01   0.03   0.01    -0.06  -0.16  -0.14    -0.03  -0.20   0.09
   8   6     0.06   0.06   0.04    -0.04   0.04   0.11    -0.05   0.09  -0.13
   9   6     0.17  -0.09  -0.11     0.07  -0.04  -0.08     0.08  -0.02   0.03
  10   6    -0.08   0.10   0.08    -0.03   0.05   0.01     0.01  -0.01   0.09
  11   6    -0.20  -0.04   0.04    -0.10  -0.02   0.06    -0.10   0.05  -0.09
  12   1     0.16  -0.10   0.03    -0.24   0.08   0.13    -0.05   0.02  -0.00
  13   1    -0.45  -0.05   0.22     0.15   0.07   0.02     0.05   0.01  -0.03
  14   1     0.15  -0.12   0.01     0.20   0.07  -0.03    -0.06   0.02   0.01
  15   1     0.12  -0.01  -0.04     0.15  -0.16   0.03    -0.03   0.03  -0.01
  16   1     0.11  -0.01  -0.04    -0.23   0.16  -0.05    -0.02   0.02  -0.01
  17   1     0.05  -0.10   0.05    -0.19   0.18  -0.11     0.00   0.02  -0.01
  18   1     0.06  -0.11   0.05     0.12  -0.17   0.02    -0.01   0.03  -0.02
  19   1     0.02   0.00  -0.01    -0.11  -0.04   0.17     0.03  -0.08   0.04
  20   1     0.02   0.00  -0.01     0.14   0.12  -0.04     0.01  -0.07   0.05
  21   1    -0.03   0.02  -0.01     0.22  -0.02  -0.15     0.10   0.00  -0.03
  22   1    -0.02   0.02  -0.01    -0.15  -0.05   0.03     0.11   0.01  -0.05
  23   1    -0.04  -0.02   0.00    -0.14  -0.02   0.03     0.12   0.03   0.01
  24   1    -0.02  -0.00   0.00    -0.02   0.02   0.01    -0.28  -0.01   0.11
  25   1    -0.02  -0.01   0.00    -0.07  -0.11  -0.03    -0.02   0.14   0.01
  26   1     0.01   0.02   0.01    -0.04  -0.03   0.01    -0.03  -0.12  -0.14
  27   1     0.01   0.01  -0.01    -0.01  -0.02  -0.04     0.09   0.12   0.12
  28   1    -0.00   0.02   0.01    -0.01   0.08   0.02    -0.04  -0.17  -0.02
  29   1     0.06  -0.01  -0.02    -0.01  -0.01   0.01     0.27   0.07  -0.05
  30   1     0.09  -0.02  -0.03     0.13  -0.00  -0.02    -0.19  -0.02   0.01
  31   1     0.03   0.05   0.02    -0.03   0.01   0.02     0.24   0.06  -0.06
  32   1     0.06   0.06   0.02     0.12   0.04   0.00    -0.20   0.00   0.02
  33   1     0.10   0.03  -0.03     0.03  -0.01  -0.05     0.16   0.13   0.10
  34   1    -0.14  -0.26  -0.12    -0.09  -0.14  -0.09    -0.03  -0.14   0.03
  35   1     0.13   0.04  -0.00     0.11   0.09   0.00    -0.05  -0.17  -0.01
                     31                     32                     33
                        a                      a                      a 
 Frequencies --  1009.3772              1027.4434              1056.2928
 Red. masses --     3.9491                 3.7781                10.4336
 Frc consts  --     0.0000                 0.0000                 0.0000
 IR Inten    --     0.6652                 0.2783                 0.1752
 Raman Activ --     0.0000                 0.0000                 0.0000
 Depolar     --     0.0000                 0.0000                 0.0000
 Atom AN      X      Y      Z        X      Y      Z        X      Y      Z
   1   6     0.00   0.01   0.09     0.09   0.04   0.01     0.10  -0.01  -0.03
   2   6     0.00  -0.03  -0.10    -0.09  -0.06  -0.01    -0.09   0.01   0.03
   3   6     0.07   0.02   0.01    -0.10   0.05   0.08    -0.12   0.00   0.05
   4   6     0.02  -0.11   0.11     0.00   0.15  -0.16     0.08   0.08  -0.08
   5   6     0.13   0.06  -0.21     0.08  -0.13   0.11     0.20  -0.09  -0.03
   6   6    -0.07   0.12   0.24     0.11   0.14   0.06    -0.11   0.03   0.09
   7   6    -0.07  -0.15  -0.16     0.00  -0.19  -0.13    -0.37   0.05   0.11
   8   6    -0.08   0.00   0.04    -0.10   0.04   0.09     0.13  -0.35  -0.23
   9   6     0.04   0.00   0.04    -0.04   0.00  -0.06     0.26   0.27   0.09
  10   6    -0.01   0.04  -0.08     0.02  -0.08   0.04     0.14   0.29   0.14
  11   6    -0.03  -0.03   0.08    -0.02   0.07  -0.02    -0.14  -0.27  -0.13
  12   1     0.06  -0.00  -0.07     0.11  -0.03  -0.05     0.03  -0.00  -0.01
  13   1     0.04  -0.02  -0.07    -0.01  -0.02  -0.02     0.03  -0.00  -0.01
  14   1    -0.17   0.01   0.02    -0.04  -0.02   0.00     0.02  -0.00  -0.01
  15   1    -0.11   0.16  -0.04    -0.06   0.08  -0.01    -0.03   0.00   0.01
  16   1     0.08  -0.08   0.06     0.07  -0.09   0.07    -0.03   0.00   0.01
  17   1     0.18  -0.08  -0.03     0.15  -0.07  -0.03    -0.03   0.00   0.01
  18   1    -0.22   0.10  -0.00    -0.17   0.04   0.02    -0.04   0.00   0.01
  19   1     0.16  -0.11   0.01     0.17  -0.07   0.00    -0.01   0.04  -0.03
  20   1    -0.21   0.07   0.02    -0.16   0.18  -0.05    -0.00   0.03  -0.02
  21   1     0.17  -0.09   0.03     0.21  -0.15   0.01     0.05  -0.02   0.00
  22   1    -0.03   0.17  -0.06    -0.21   0.09   0.02     0.07  -0.01  -0.01
  23   1    -0.04   0.15   0.06    -0.22  -0.08   0.02    -0.04   0.03   0.02
  24   1    -0.11  -0.04  -0.05     0.22   0.11   0.01     0.08   0.04   0.00
  25   1     0.17  -0.05  -0.04    -0.23  -0.15  -0.03    -0.10  -0.00   0.03
  26   1    -0.16  -0.07   0.03     0.19   0.02  -0.03    -0.06   0.03   0.04
  27   1    -0.20  -0.07  -0.00     0.19   0.08  -0.02     0.04  -0.10  -0.07
  28   1     0.20   0.10   0.00    -0.21  -0.02   0.02     0.01  -0.10  -0.06
  29   1    -0.14  -0.07  -0.02     0.17   0.09   0.04     0.02   0.05   0.03
  30   1     0.22   0.12   0.00    -0.11  -0.10  -0.01     0.01   0.04   0.03
  31   1    -0.12  -0.00   0.06     0.14   0.01  -0.06    -0.00   0.06   0.04
  32   1     0.19  -0.00  -0.02    -0.09   0.02   0.01    -0.01   0.07   0.04
  33   1    -0.04  -0.05  -0.07     0.09   0.07   0.04    -0.11  -0.10  -0.02
  34   1    -0.05  -0.04  -0.07    -0.01  -0.06   0.01    -0.01   0.01   0.01
  35   1     0.10   0.12   0.01     0.00  -0.05   0.00    -0.12  -0.10  -0.03
                     34                     35                     36
                        a                      a                      a 
 Frequencies --  1078.8919              1093.2498              1102.5332
 Red. masses --     8.7460                 8.0454                 8.6772
 Frc consts  --     0.0000                 0.0000                 0.0000
 IR Inten    --     1.1139                 2.6263                 0.1048
 Raman Activ --     0.0000                 0.0000                 0.0000
 Depolar     --     0.0000                 0.0000                 0.0000
 Atom AN      X      Y      Z        X      Y      Z        X      Y      Z
   1   6     0.36   0.06  -0.20    -0.00  -0.10   0.09    -0.02  -0.01   0.02
   2   6    -0.42  -0.03   0.21     0.04   0.09  -0.11     0.03  -0.03   0.01
   3   6    -0.31   0.03   0.07    -0.23  -0.09   0.18    -0.15   0.02   0.05
   4   6     0.28   0.05  -0.10     0.37  -0.17  -0.06     0.18  -0.10  -0.01
   5   6     0.07  -0.09  -0.05     0.15   0.15  -0.14    -0.13   0.12  -0.01
   6   6    -0.15   0.09   0.03    -0.21  -0.22   0.03     0.07  -0.08  -0.08
   7   6     0.06  -0.07  -0.01     0.01   0.25   0.08     0.39  -0.01  -0.11
   8   6    -0.08   0.05   0.00     0.21   0.09   0.04    -0.43  -0.03   0.09
   9   6    -0.04  -0.01   0.03    -0.00  -0.13  -0.10     0.02   0.14   0.07
  10   6    -0.06  -0.13  -0.09    -0.13  -0.04   0.03     0.23   0.24   0.08
  11   6     0.02   0.12   0.08     0.09   0.06   0.00    -0.12  -0.23  -0.10
  12   1     0.19  -0.05  -0.03    -0.09   0.04  -0.01    -0.02   0.00   0.00
  13   1    -0.02  -0.02   0.02     0.14   0.01  -0.07     0.01  -0.00  -0.00
  14   1     0.20  -0.05  -0.04    -0.11   0.06   0.01    -0.01   0.00   0.00
  15   1    -0.08  -0.05   0.06    -0.04   0.07  -0.03     0.03  -0.02   0.00
  16   1    -0.09  -0.02   0.05    -0.02   0.04  -0.01     0.03  -0.02   0.01
  17   1    -0.06  -0.01   0.05    -0.16   0.04   0.03    -0.09   0.03   0.01
  18   1     0.00  -0.03   0.02    -0.22   0.04   0.04    -0.09   0.03   0.01
  19   1     0.11   0.00  -0.06     0.10  -0.05   0.01     0.12  -0.07   0.01
  20   1     0.17  -0.08  -0.02     0.04   0.02  -0.02     0.10  -0.05  -0.00
  21   1    -0.02  -0.01   0.03    -0.04   0.10  -0.07    -0.07   0.06  -0.03
  22   1     0.17  -0.05  -0.01    -0.13   0.11  -0.04    -0.10   0.05  -0.00
  23   1     0.10   0.02   0.01    -0.27  -0.05   0.01    -0.02  -0.04  -0.02
  24   1    -0.13   0.00   0.05    -0.03  -0.07  -0.07    -0.06  -0.05  -0.03
  25   1     0.13   0.07  -0.01    -0.06  -0.01   0.03     0.16   0.01  -0.03
  26   1     0.01  -0.03  -0.03     0.06   0.11   0.07     0.17   0.02  -0.03
  27   1    -0.04   0.01   0.03     0.07   0.02  -0.01    -0.21  -0.05   0.03
  28   1     0.08   0.01   0.00    -0.02   0.03   0.01    -0.21  -0.04   0.03
  29   1     0.02   0.00  -0.01    -0.03  -0.04  -0.01     0.02   0.05   0.03
  30   1     0.07   0.05   0.00    -0.06  -0.08  -0.02     0.01   0.05   0.02
  31   1    -0.01  -0.03  -0.01    -0.07  -0.03  -0.01     0.09   0.08   0.02
  32   1     0.03  -0.03  -0.02    -0.10  -0.03   0.01     0.09   0.08   0.02
  33   1     0.07   0.05   0.00    -0.02   0.01   0.02    -0.08  -0.08  -0.02
  34   1    -0.02  -0.04  -0.03     0.05   0.08   0.04    -0.02  -0.02  -0.00
  35   1     0.08   0.06   0.02    -0.03   0.00   0.00    -0.08  -0.08  -0.02
                     37                     38                     39
                        a                      a                      a 
 Frequencies --  1103.5685              1112.8415              1122.8809
 Red. masses --     7.9905                 7.4917                 6.9252
 Frc consts  --     0.0000                 0.0000                 0.0000
 IR Inten    --     1.0386                 1.2204                 1.5201
 Raman Activ --     0.0000                 0.0000                 0.0000
 Depolar     --     0.0000                 0.0000                 0.0000
 Atom AN      X      Y      Z        X      Y      Z        X      Y      Z
   1   6     0.19   0.07  -0.11    -0.19  -0.02   0.08    -0.08   0.11  -0.03
   2   6    -0.27   0.02   0.07     0.27  -0.15   0.02     0.08  -0.29   0.14
   3   6     0.13  -0.01  -0.00    -0.30   0.15  -0.01    -0.13   0.30  -0.11
   4   6    -0.08  -0.11   0.06     0.20   0.09  -0.10     0.00  -0.07  -0.02
   5   6    -0.05   0.11   0.02    -0.04  -0.08   0.01    -0.06   0.11   0.06
   6   6     0.04  -0.01  -0.05     0.03   0.17   0.04     0.09   0.02  -0.08
   7   6     0.01   0.03   0.03    -0.17  -0.13  -0.01    -0.03  -0.03   0.03
   8   6     0.20   0.28   0.10     0.14   0.13   0.02     0.04   0.03  -0.03
   9   6    -0.17  -0.27  -0.11    -0.28  -0.11   0.02     0.31  -0.09  -0.11
  10   6     0.17   0.26   0.10     0.22   0.02  -0.06    -0.29   0.09   0.12
  11   6    -0.02  -0.25  -0.14    -0.08  -0.08  -0.02     0.14   0.02  -0.02
  12   1     0.13  -0.03  -0.03    -0.07   0.00   0.03     0.10  -0.05   0.01
  13   1    -0.03  -0.01   0.01    -0.05  -0.00   0.02    -0.17  -0.02   0.08
  14   1     0.10  -0.03  -0.02    -0.06  -0.00   0.02     0.06  -0.07   0.01
  15   1    -0.10   0.05   0.02     0.18  -0.12   0.01     0.15  -0.13   0.04
  16   1    -0.09   0.01   0.03     0.17  -0.10   0.00     0.17  -0.17   0.06
  17   1     0.13  -0.06  -0.02    -0.15   0.08   0.00     0.01   0.06  -0.06
  18   1     0.05  -0.05   0.00    -0.12   0.08  -0.01    -0.08   0.06  -0.03
  19   1     0.02  -0.07   0.05     0.08   0.02  -0.06     0.14  -0.11   0.04
  20   1    -0.03   0.01   0.01     0.14  -0.06  -0.02     0.09  -0.02  -0.00
  21   1     0.08  -0.02  -0.03    -0.05  -0.01   0.04     0.11  -0.03  -0.04
  22   1    -0.10   0.02   0.01     0.07  -0.00  -0.00    -0.10   0.00   0.02
  23   1    -0.02  -0.03  -0.01     0.16   0.07   0.01     0.05  -0.02  -0.02
  24   1    -0.08  -0.04   0.00     0.04   0.06   0.04    -0.09  -0.03   0.02
  25   1    -0.10  -0.01   0.01    -0.04  -0.01  -0.00    -0.07  -0.01   0.00
  26   1    -0.12  -0.04   0.00    -0.08  -0.05  -0.02    -0.10  -0.06  -0.02
  27   1     0.04   0.07   0.04     0.13   0.08   0.02    -0.11  -0.04   0.01
  28   1     0.07   0.07   0.03     0.19   0.07   0.00    -0.04  -0.05  -0.01
  29   1    -0.20  -0.13  -0.03    -0.13  -0.05  -0.00     0.05  -0.04  -0.05
  30   1    -0.19  -0.12  -0.03    -0.11  -0.03   0.01     0.07  -0.01  -0.03
  31   1     0.07   0.08   0.02     0.16   0.05  -0.01    -0.23  -0.04   0.04
  32   1     0.08   0.07   0.03     0.18   0.04  -0.02    -0.21  -0.04   0.03
  33   1    -0.14  -0.11  -0.02     0.01  -0.02  -0.02    -0.08  -0.03   0.02
  34   1     0.04   0.09   0.04    -0.04  -0.07  -0.03     0.08   0.15   0.07
  35   1    -0.14  -0.10  -0.03     0.02  -0.01  -0.01    -0.08  -0.00   0.00
                     40                     41                     42
                        a                      a                      a 
 Frequencies --  1130.5978              1144.7822              1175.8935
 Red. masses --     8.0541                 8.4241                 6.9625
 Frc consts  --     0.0000                 0.0000                 0.0000
 IR Inten    --     0.4084                 1.8638                 0.3412
 Raman Activ --     0.0000                 0.0000                 0.0000
 Depolar     --     0.0000                 0.0000                 0.0000
 Atom AN      X      Y      Z        X      Y      Z        X      Y      Z
   1   6     0.09  -0.02  -0.02     0.01   0.12  -0.08     0.01  -0.03   0.10
   2   6    -0.12   0.09  -0.02    -0.05  -0.22   0.15    -0.00   0.04  -0.18
   3   6    -0.00  -0.11   0.09     0.07   0.24  -0.15    -0.03  -0.01   0.22
   4   6     0.17  -0.22   0.10    -0.11  -0.19   0.10    -0.03   0.04  -0.28
   5   6    -0.37   0.26   0.03     0.09   0.20  -0.07    -0.01   0.01   0.33
   6   6     0.40   0.09  -0.07    -0.05  -0.25  -0.03     0.01  -0.00  -0.32
   7   6    -0.23  -0.09  -0.03    -0.03   0.27   0.10     0.06   0.05   0.26
   8   6     0.06  -0.14  -0.09     0.08  -0.17  -0.08     0.03  -0.00  -0.19
   9   6     0.03   0.09   0.04    -0.20   0.18   0.14    -0.02   0.04   0.15
  10   6    -0.02  -0.09  -0.04     0.18  -0.18  -0.14     0.04  -0.03  -0.12
  11   6    -0.01   0.07   0.04    -0.10   0.07   0.06    -0.03   0.01   0.07
  12   1     0.01   0.01  -0.02     0.12  -0.05   0.00    -0.00   0.02  -0.04
  13   1     0.05   0.00  -0.02    -0.15  -0.02   0.07     0.07  -0.01  -0.06
  14   1     0.01   0.01  -0.01     0.09  -0.07  -0.01    -0.12   0.02   0.02
  15   1    -0.08   0.05  -0.01     0.06  -0.07   0.04     0.01   0.10  -0.05
  16   1    -0.08   0.05  -0.00     0.07  -0.11   0.06     0.00  -0.02   0.04
  17   1    -0.02  -0.02   0.02     0.05   0.05  -0.06     0.11  -0.04  -0.06
  18   1    -0.05  -0.02   0.03    -0.02   0.04  -0.04    -0.09  -0.09   0.06
  19   1     0.08  -0.08   0.04     0.03  -0.09   0.07     0.08  -0.08   0.09
  20   1     0.10  -0.10   0.03    -0.02   0.01   0.02     0.05   0.15  -0.07
  21   1    -0.16   0.11  -0.01     0.04   0.05  -0.08     0.20  -0.08  -0.09
  22   1    -0.28   0.16   0.00    -0.11   0.03  -0.01    -0.11  -0.15   0.09
  23   1     0.23   0.09  -0.02    -0.18  -0.04  -0.01     0.09  -0.18  -0.08
  24   1     0.17   0.05  -0.03    -0.01  -0.09  -0.07    -0.22  -0.03   0.11
  25   1    -0.15  -0.09  -0.01    -0.01   0.02   0.03    -0.02   0.16   0.05
  26   1    -0.09  -0.04  -0.00     0.05   0.11   0.07    -0.11  -0.09  -0.08
  27   1     0.05  -0.02  -0.03     0.07  -0.03  -0.04    -0.12  -0.01   0.07
  28   1     0.05  -0.02  -0.03     0.00  -0.01  -0.02     0.07  -0.10  -0.04
  29   1     0.03   0.03   0.01    -0.04   0.06   0.05    -0.07  -0.05  -0.04
  30   1     0.03   0.02   0.01    -0.06   0.02   0.04    -0.02   0.09   0.03
  31   1    -0.00  -0.02  -0.01     0.14  -0.01  -0.04    -0.01   0.01   0.03
  32   1    -0.01  -0.02  -0.01     0.12  -0.00  -0.04     0.07  -0.05  -0.03
  33   1     0.05   0.03   0.00     0.11   0.06  -0.01     0.02  -0.01  -0.03
  34   1    -0.02  -0.04  -0.02    -0.07  -0.14  -0.06    -0.03  -0.04  -0.04
  35   1     0.05   0.03   0.01     0.11   0.03   0.01     0.07   0.06   0.01
                     43                     44                     45
                        a                      a                      a 
 Frequencies --  1208.5334              1217.7146              1244.7862
 Red. masses --     5.9178                 5.1336                 3.6749
 Frc consts  --     0.0000                 0.0000                 0.0000
 IR Inten    --     0.1636                 0.2727                 0.1478
 Raman Activ --     0.0000                 0.0000                 0.0000
 Depolar     --     0.0000                 0.0000                 0.0000
 Atom AN      X      Y      Z        X      Y      Z        X      Y      Z
   1   6    -0.04  -0.06  -0.11    -0.08  -0.16  -0.18     0.02   0.02   0.07
   2   6     0.06   0.09   0.17     0.11   0.23   0.25    -0.02  -0.00  -0.07
   3   6    -0.03  -0.08  -0.15    -0.11  -0.15  -0.16    -0.06  -0.01   0.00
   4   6     0.04   0.04   0.12     0.05   0.12   0.06     0.03   0.09   0.07
   5   6     0.01  -0.01  -0.06    -0.03  -0.02   0.05    -0.07  -0.09  -0.11
   6   6     0.00   0.01  -0.02     0.03  -0.00  -0.09     0.07   0.07   0.11
   7   6     0.03  -0.07   0.11     0.02   0.05   0.05     0.14   0.07  -0.13
   8   6    -0.05   0.12  -0.20     0.07  -0.04   0.02     0.19   0.01   0.06
   9   6     0.06  -0.15   0.25    -0.03   0.11  -0.09     0.09   0.14   0.04
  10   6    -0.07   0.17  -0.29     0.07  -0.13   0.13     0.12  -0.04  -0.14
  11   6     0.05  -0.12   0.20    -0.05   0.09  -0.10    -0.05   0.03   0.12
  12   1    -0.10   0.01   0.08    -0.21   0.03   0.14     0.04   0.00  -0.04
  13   1     0.00   0.03   0.05     0.05   0.06   0.07     0.02  -0.01  -0.03
  14   1     0.14   0.02  -0.03     0.22   0.05  -0.05    -0.08  -0.00   0.02
  15   1    -0.09  -0.08   0.05    -0.17  -0.11   0.07     0.13  -0.04  -0.01
  16   1     0.05   0.04  -0.10     0.16   0.05  -0.17    -0.07   0.03   0.02
  17   1    -0.02  -0.05   0.09     0.09  -0.15   0.13    -0.01  -0.01   0.01
  18   1     0.01   0.11  -0.04    -0.02   0.16  -0.05     0.09  -0.05   0.00
  19   1     0.07   0.00  -0.06     0.19  -0.05  -0.06    -0.03   0.07  -0.06
  20   1    -0.12  -0.02   0.03    -0.14   0.01   0.01     0.11  -0.13   0.03
  21   1     0.02  -0.02   0.02     0.19  -0.12   0.01     0.08  -0.11   0.09
  22   1    -0.09   0.09  -0.02    -0.12   0.05   0.01     0.05   0.06  -0.03
  23   1    -0.13  -0.07   0.00     0.00  -0.05  -0.02    -0.07   0.03   0.03
  24   1     0.10   0.05   0.01    -0.15  -0.05   0.02    -0.20  -0.09  -0.03
  25   1    -0.14   0.03   0.02    -0.01   0.01   0.01    -0.23  -0.16  -0.02
  26   1     0.12  -0.01  -0.07    -0.11  -0.04  -0.00    -0.27  -0.06   0.05
  27   1     0.07   0.12   0.11    -0.16  -0.09  -0.03    -0.23  -0.13  -0.03
  28   1    -0.06  -0.17  -0.03     0.05   0.04   0.00    -0.35  -0.09   0.02
  29   1     0.08  -0.09  -0.14    -0.12   0.02   0.07    -0.17  -0.04   0.02
  30   1    -0.11   0.15   0.05     0.04  -0.06  -0.01    -0.32  -0.12   0.02
  31   1    -0.00   0.14   0.16    -0.04  -0.10  -0.09    -0.01  -0.01   0.02
  32   1     0.03  -0.20  -0.05     0.01   0.11   0.02    -0.15  -0.13  -0.03
  33   1    -0.13  -0.15  -0.12     0.09   0.10   0.07     0.02  -0.01  -0.05
  34   1    -0.02   0.05  -0.08     0.00  -0.05   0.04    -0.06  -0.08  -0.07
  35   1     0.10   0.21   0.03    -0.04  -0.12  -0.01     0.09   0.08   0.02
                     46                     47                     48
                        a                      a                      a 
 Frequencies --  1248.3356              1260.2029              1268.6651
 Red. masses --     4.0133                 3.4679                 3.0020
 Frc consts  --     0.0000                 0.0000                 0.0000
 IR Inten    --     0.1420                 0.2208                 0.2095
 Raman Activ --     0.0000                 0.0000                 0.0000
 Depolar     --     0.0000                 0.0000                 0.0000
 Atom AN      X      Y      Z        X      Y      Z        X      Y      Z
   1   6     0.03   0.11   0.03    -0.03   0.02  -0.14    -0.04  -0.10  -0.09
   2   6    -0.01  -0.14  -0.00     0.07  -0.10   0.13    -0.01   0.04  -0.00
   3   6     0.10  -0.02  -0.06     0.18   0.01   0.04     0.02   0.11   0.12
   4   6     0.12  -0.01   0.09     0.13  -0.13  -0.14    -0.11  -0.10  -0.11
   5   6     0.04  -0.11  -0.06     0.04  -0.08   0.12     0.03   0.08  -0.01
   6   6    -0.01   0.13  -0.08    -0.03   0.10  -0.06    -0.01   0.01   0.15
   7   6     0.13  -0.14   0.18     0.04  -0.00  -0.07     0.04  -0.07  -0.04
   8   6    -0.01   0.12  -0.16     0.05  -0.05   0.12     0.04   0.11  -0.07
   9   6     0.04   0.00   0.07     0.01   0.07  -0.06     0.10  -0.02   0.10
  10   6     0.07  -0.09   0.10     0.02   0.01  -0.05     0.08  -0.03  -0.01
  11   6    -0.05   0.10  -0.12     0.01  -0.04   0.10    -0.05   0.08  -0.06
  12   1     0.10  -0.02  -0.04    -0.02  -0.02   0.07    -0.11   0.01   0.06
  13   1    -0.08  -0.03   0.00    -0.09   0.01   0.08     0.03   0.03   0.02
  14   1    -0.05  -0.04   0.01     0.12  -0.02  -0.03     0.11   0.03  -0.03
  15   1     0.05   0.00  -0.00    -0.29   0.12   0.02    -0.26   0.15  -0.01
  16   1    -0.18   0.06   0.04     0.03  -0.02  -0.02     0.32  -0.18   0.01
  17   1    -0.23   0.14  -0.00    -0.13   0.12  -0.05     0.07   0.01  -0.07
  18   1    -0.05   0.06  -0.02    -0.35   0.16  -0.00     0.03  -0.11   0.04
  19   1    -0.19   0.15  -0.06    -0.26   0.11   0.05     0.06  -0.11   0.09
  20   1    -0.14   0.03   0.02    -0.20   0.21  -0.05     0.07   0.06  -0.03
  21   1    -0.10   0.03   0.04    -0.19   0.12  -0.03    -0.24   0.18  -0.03
  22   1    -0.14   0.15  -0.03    -0.01  -0.05   0.03     0.27  -0.19   0.01
  23   1    -0.22  -0.16  -0.01     0.10  -0.01  -0.01    -0.01   0.08   0.04
  24   1     0.16   0.13   0.06    -0.04   0.03   0.06     0.11   0.03  -0.03
  25   1    -0.14   0.08   0.04     0.14   0.01  -0.02    -0.21  -0.08  -0.01
  26   1    -0.04  -0.12  -0.11    -0.24  -0.08   0.02     0.11   0.03  -0.01
  27   1    -0.19   0.01   0.09     0.00  -0.05  -0.05    -0.11   0.01   0.05
  28   1     0.03  -0.10  -0.03    -0.13   0.03   0.02    -0.12  -0.10  -0.01
  29   1    -0.22  -0.11  -0.02    -0.03   0.02   0.04    -0.14  -0.10  -0.04
  30   1     0.09   0.08   0.01    -0.08  -0.08  -0.01    -0.14   0.01   0.02
  31   1    -0.20  -0.14  -0.06     0.15   0.07   0.01    -0.27  -0.13  -0.00
  32   1     0.14   0.13   0.02    -0.20  -0.11  -0.01     0.13   0.05  -0.01
  33   1     0.09   0.10   0.07    -0.03  -0.05  -0.05     0.06   0.07   0.03
  34   1     0.00  -0.06   0.04    -0.02  -0.00  -0.04    -0.02  -0.06   0.01
  35   1    -0.04  -0.13  -0.02     0.05   0.08   0.02    -0.01  -0.07  -0.01
                     49                     50                     51
                        a                      a                      a 
 Frequencies --  1277.6794              1283.4379              1290.1580
 Red. masses --     1.7008                 1.9231                 2.5667
 Frc consts  --     0.0000                 0.0000                 0.0000
 IR Inten    --     0.1819                 0.1234                 0.2213
 Raman Activ --     0.0000                 0.0000                 0.0000
 Depolar     --     0.0000                 0.0000                 0.0000
 Atom AN      X      Y      Z        X      Y      Z        X      Y      Z
   1   6    -0.01  -0.06   0.00     0.00   0.01  -0.00    -0.01  -0.04  -0.01
   2   6    -0.03   0.08  -0.01     0.05   0.07   0.11    -0.03   0.07   0.01
   3   6    -0.07   0.08   0.05     0.03   0.02   0.03    -0.01   0.09   0.06
   4   6    -0.05  -0.04   0.01    -0.04  -0.08  -0.12    -0.07  -0.06  -0.01
   5   6    -0.03   0.04  -0.09    -0.01  -0.03  -0.03     0.03  -0.01  -0.11
   6   6    -0.01   0.05  -0.04    -0.03  -0.02   0.02    -0.04   0.04  -0.02
   7   6     0.01  -0.02   0.02     0.02   0.05  -0.07     0.07  -0.13   0.18
   8   6    -0.00   0.03  -0.04    -0.02  -0.01   0.00     0.00  -0.01   0.04
   9   6     0.00   0.01  -0.01     0.02  -0.07   0.12    -0.03   0.09  -0.16
  10   6     0.03  -0.06   0.10    -0.02   0.01  -0.02    -0.01   0.02  -0.04
  11   6     0.00  -0.01   0.03    -0.01   0.03  -0.07     0.02  -0.04   0.07
  12   1    -0.04   0.01   0.01     0.01  -0.00   0.01    -0.03   0.01   0.01
  13   1     0.05   0.01  -0.01    -0.00   0.01   0.02     0.04   0.01  -0.00
  14   1     0.02   0.03  -0.00     0.00   0.00   0.00     0.02   0.02  -0.00
  15   1     0.01  -0.02  -0.00     0.11  -0.14   0.04     0.01  -0.03   0.01
  16   1     0.14  -0.07  -0.01    -0.15   0.14  -0.06     0.10  -0.04  -0.01
  17   1     0.19  -0.09  -0.02     0.38  -0.21  -0.00     0.23  -0.10  -0.03
  18   1     0.04  -0.06   0.02    -0.42   0.23  -0.01    -0.07  -0.01   0.02
  19   1    -0.02  -0.01   0.02    -0.31   0.13   0.04    -0.16   0.06   0.02
  20   1     0.19  -0.11   0.01     0.30  -0.09  -0.02     0.25  -0.11   0.00
  21   1    -0.01   0.01  -0.00     0.03  -0.04   0.02    -0.08   0.04   0.01
  22   1     0.04   0.02  -0.03    -0.01   0.03  -0.01    -0.02   0.07  -0.03
  23   1    -0.21  -0.12  -0.01     0.06   0.03   0.00    -0.19  -0.11   0.00
  24   1     0.23   0.12   0.01    -0.02  -0.02  -0.02     0.24   0.12   0.01
  25   1     0.23   0.10   0.00     0.01  -0.03  -0.01    -0.08   0.09   0.04
  26   1    -0.24  -0.11  -0.02    -0.03   0.02   0.03     0.05  -0.07  -0.09
  27   1     0.22   0.10   0.01     0.16   0.06   0.00    -0.40  -0.17  -0.00
  28   1    -0.24  -0.12  -0.00    -0.14  -0.05   0.00     0.38   0.17   0.00
  29   1    -0.37  -0.14   0.02     0.09  -0.02  -0.06     0.15   0.13   0.06
  30   1     0.34   0.12  -0.01    -0.06   0.05   0.03    -0.15  -0.16  -0.03
  31   1     0.23   0.04  -0.05    -0.21  -0.07   0.02     0.13   0.07   0.01
  32   1    -0.25  -0.04   0.03     0.24   0.08  -0.01    -0.13  -0.07  -0.01
  33   1    -0.01  -0.02  -0.01     0.03   0.04   0.03    -0.03  -0.04  -0.04
  34   1     0.00  -0.01   0.01     0.01  -0.00   0.02    -0.01   0.01  -0.03
  35   1     0.02   0.02   0.01    -0.03  -0.06  -0.01     0.02   0.06   0.01
                     52                     53                     54
                        a                      a                      a 
 Frequencies --  1291.2683              1297.1473              1307.0644
 Red. masses --     2.5811                 2.2880                 3.0775
 Frc consts  --     0.0000                 0.0000                 0.0000
 IR Inten    --     0.3112                 0.1750                 0.4637
 Raman Activ --     0.0000                 0.0000                 0.0000
 Depolar     --     0.0000                 0.0000                 0.0000
 Atom AN      X      Y      Z        X      Y      Z        X      Y      Z
   1   6    -0.03  -0.06  -0.07    -0.01   0.01  -0.04     0.01  -0.01   0.04
   2   6    -0.02  -0.04  -0.06     0.04  -0.03   0.02    -0.03   0.05   0.01
   3   6     0.04   0.10   0.14     0.07   0.01   0.06    -0.07  -0.01  -0.06
   4   6     0.06   0.07   0.09    -0.02   0.02  -0.04     0.02  -0.07  -0.05
   5   6    -0.05  -0.10  -0.09    -0.01  -0.07  -0.02     0.00  -0.01   0.00
   6   6     0.06   0.03  -0.05     0.05  -0.04   0.12     0.14   0.15   0.06
   7   6     0.05   0.09   0.01     0.08   0.05  -0.01     0.15   0.07   0.01
   8   6    -0.00  -0.09   0.02    -0.04   0.06  -0.19     0.08  -0.09  -0.03
   9   6    -0.08  -0.06   0.06    -0.09   0.02  -0.04    -0.15  -0.01   0.04
  10   6    -0.11   0.02  -0.01    -0.06  -0.05   0.10    -0.21  -0.02   0.02
  11   6     0.03  -0.02  -0.06     0.04  -0.04   0.01     0.06  -0.06  -0.05
  12   1    -0.07   0.01   0.04    -0.01  -0.00   0.02     0.01   0.00  -0.02
  13   1     0.01   0.01   0.01    -0.03   0.00   0.02     0.03   0.00  -0.02
  14   1     0.07   0.01  -0.02     0.02  -0.01  -0.01    -0.02   0.01   0.01
  15   1    -0.27   0.21  -0.03    -0.11   0.06   0.00     0.14  -0.10   0.01
  16   1     0.28  -0.20   0.04    -0.01   0.00  -0.00    -0.02   0.03  -0.01
  17   1    -0.13   0.14  -0.08     0.00   0.03  -0.03     0.08  -0.08   0.04
  18   1     0.12  -0.17   0.05    -0.13   0.04   0.01     0.03   0.02  -0.02
  19   1    -0.21   0.18  -0.07    -0.15   0.09  -0.00     0.11  -0.10   0.04
  20   1     0.18  -0.17   0.04     0.12  -0.05  -0.00    -0.16   0.13  -0.03
  21   1     0.17  -0.16   0.07     0.03  -0.05   0.05    -0.27   0.17   0.00
  22   1    -0.15   0.18  -0.04    -0.00   0.01  -0.00     0.20  -0.14   0.01
  23   1    -0.11  -0.08  -0.01     0.11   0.11   0.02    -0.25  -0.08   0.02
  24   1    -0.13  -0.05  -0.00    -0.25  -0.15  -0.05    -0.11  -0.02   0.02
  25   1     0.02  -0.00   0.00    -0.46  -0.17   0.00    -0.21  -0.09   0.01
  26   1    -0.19  -0.05   0.01     0.27   0.11   0.01    -0.34  -0.13  -0.01
  27   1     0.12   0.01  -0.02    -0.09   0.04   0.07    -0.04  -0.04  -0.01
  28   1    -0.03   0.02   0.00     0.11  -0.06  -0.04    -0.06  -0.01  -0.01
  29   1     0.27   0.08  -0.03    -0.17  -0.04   0.02     0.27   0.11  -0.01
  30   1     0.02   0.04   0.01     0.38   0.12  -0.02     0.17   0.07   0.00
  31   1    -0.03   0.01   0.02     0.31   0.09  -0.04     0.20   0.10   0.00
  32   1     0.25   0.08  -0.01    -0.13   0.00   0.02     0.26   0.10  -0.00
  33   1    -0.00   0.01   0.03    -0.03  -0.03   0.00    -0.02  -0.00   0.03
  34   1     0.03   0.05   0.03     0.02   0.04   0.02     0.05   0.10   0.04
  35   1    -0.04  -0.02  -0.01     0.00   0.03   0.00    -0.03   0.02  -0.01
                     55                     56                     57
                        a                      a                      a 
 Frequencies --  1324.7195              1347.5637              1367.3311
 Red. masses --     3.6987                 4.2137                 4.7050
 Frc consts  --     0.0000                 0.0000                 0.0000
 IR Inten    --     0.0479                 1.2066                 1.8631
 Raman Activ --     0.0000                 0.0000                 0.0000
 Depolar     --     0.0000                 0.0000                 0.0000
 Atom AN      X      Y      Z        X      Y      Z        X      Y      Z
   1   6    -0.01  -0.09   0.07     0.00  -0.01   0.00     0.00   0.07  -0.05
   2   6    -0.23   0.17  -0.03    -0.03   0.01  -0.00     0.31  -0.16  -0.01
   3   6    -0.07   0.13  -0.06     0.01   0.00  -0.01    -0.23   0.09   0.02
   4   6     0.12  -0.14   0.06    -0.00   0.00   0.02    -0.15   0.04   0.03
   5   6     0.21  -0.17   0.07     0.06   0.05   0.03     0.29  -0.17   0.01
   6   6    -0.05   0.04  -0.04    -0.27  -0.11  -0.02    -0.01   0.07  -0.03
   7   6     0.00   0.01  -0.04    -0.02  -0.08  -0.04    -0.03  -0.01  -0.02
   8   6    -0.04   0.01  -0.00     0.25   0.11   0.00     0.01   0.01   0.01
   9   6     0.03  -0.01   0.00     0.00   0.07   0.04     0.02   0.01   0.00
  10   6     0.04   0.01   0.00    -0.29  -0.12   0.00    -0.03  -0.01  -0.00
  11   6    -0.01   0.01   0.01     0.06  -0.06  -0.05     0.00  -0.00  -0.00
  12   1    -0.01   0.00  -0.04     0.00  -0.00  -0.00    -0.02   0.01   0.06
  13   1     0.14   0.02  -0.07     0.01   0.00  -0.01    -0.11  -0.01   0.05
  14   1     0.02   0.04   0.01     0.00   0.00   0.00    -0.05  -0.04  -0.00
  15   1     0.28  -0.16   0.00     0.02  -0.01  -0.00    -0.29   0.15  -0.01
  16   1     0.30  -0.17   0.01     0.03  -0.02   0.00    -0.29   0.17   0.01
  17   1     0.16  -0.08   0.02    -0.02   0.01   0.00     0.20  -0.13  -0.01
  18   1     0.16  -0.11  -0.00     0.02  -0.01  -0.00     0.22  -0.11   0.01
  19   1    -0.24   0.13  -0.02     0.00   0.00  -0.00     0.14  -0.08  -0.01
  20   1    -0.21   0.14   0.00    -0.01  -0.01   0.01     0.13  -0.06   0.01
  21   1    -0.22   0.13  -0.01     0.11  -0.03  -0.04    -0.30   0.18   0.01
  22   1    -0.31   0.17   0.01    -0.11   0.05   0.01    -0.30   0.16  -0.00
  23   1     0.20   0.06  -0.01     0.32   0.11  -0.02     0.05   0.00  -0.01
  24   1    -0.18  -0.04   0.05     0.29   0.12  -0.01    -0.13  -0.02   0.04
  25   1    -0.03  -0.03  -0.01     0.06   0.04  -0.01     0.04   0.00  -0.01
  26   1     0.06   0.03   0.01     0.06   0.02   0.02    -0.01  -0.00  -0.00
  27   1     0.05   0.03   0.01    -0.30  -0.11   0.00     0.01   0.00  -0.00
  28   1     0.00  -0.00  -0.00    -0.31  -0.12   0.01    -0.03  -0.01   0.00
  29   1    -0.05  -0.02  -0.00    -0.03  -0.01  -0.02    -0.02  -0.01  -0.00
  30   1    -0.00   0.01  -0.00    -0.02  -0.03   0.01    -0.02  -0.01   0.00
  31   1    -0.04  -0.02  -0.00     0.30   0.13   0.00     0.02   0.01   0.00
  32   1    -0.05  -0.02   0.00     0.31   0.13  -0.01     0.03   0.01  -0.00
  33   1     0.00   0.00  -0.01     0.01   0.01   0.05     0.00   0.00   0.00
  34   1    -0.01  -0.02  -0.01     0.06   0.11   0.05     0.00   0.01   0.00
  35   1     0.00  -0.01   0.00    -0.01   0.05  -0.01    -0.00   0.00  -0.00
                     58                     59                     60
                        a                      a                      a 
 Frequencies --  1375.2337              1378.4213              1380.7575
 Red. masses --     5.0162                 5.7051                 5.6161
 Frc consts  --     0.0000                 0.0000                 0.0000
 IR Inten    --     0.1683                 0.9247                 0.1218
 Raman Activ --     0.0000                 0.0000                 0.0000
 Depolar     --     0.0000                 0.0000                 0.0000
 Atom AN      X      Y      Z        X      Y      Z        X      Y      Z
   1   6     0.01  -0.01   0.01    -0.02   0.02  -0.01    -0.02   0.02  -0.01
   2   6    -0.07   0.04   0.00     0.13  -0.07  -0.00     0.14  -0.07  -0.00
   3   6     0.10  -0.05   0.01    -0.20   0.12  -0.02    -0.21   0.15  -0.01
   4   6    -0.06   0.04  -0.02     0.21  -0.13   0.02     0.24  -0.16   0.01
   5   6    -0.02  -0.07  -0.02    -0.15   0.11   0.00    -0.21   0.07   0.00
   6   6     0.31   0.11  -0.01    -0.08  -0.07   0.01     0.19   0.02  -0.00
   7   6    -0.26  -0.08   0.01     0.18   0.08   0.01    -0.23  -0.10   0.01
   8   6    -0.03   0.03   0.02    -0.27  -0.09   0.00     0.22   0.10  -0.01
   9   6     0.25   0.11   0.00     0.28   0.10  -0.01    -0.16  -0.05   0.01
  10   6    -0.24  -0.12  -0.01    -0.17  -0.09  -0.01     0.08   0.04   0.00
  11   6     0.04  -0.02  -0.02     0.04   0.00  -0.01    -0.02  -0.01   0.00
  12   1     0.00   0.00  -0.01     0.01  -0.01   0.02     0.01  -0.01   0.01
  13   1     0.02   0.00  -0.01    -0.02   0.00   0.01    -0.01   0.00   0.00
  14   1     0.01   0.01   0.00    -0.00  -0.02   0.00     0.00  -0.02   0.00
  15   1     0.06  -0.03   0.00    -0.10   0.05  -0.01    -0.10   0.05  -0.01
  16   1     0.06  -0.03  -0.00    -0.10   0.06   0.01    -0.10   0.06   0.01
  17   1    -0.06   0.04  -0.01     0.16  -0.10   0.01     0.20  -0.12   0.01
  18   1    -0.10   0.05  -0.00     0.17  -0.10   0.01     0.17  -0.11   0.01
  19   1     0.00  -0.00   0.00    -0.16   0.10  -0.01    -0.26   0.15  -0.02
  20   1     0.07  -0.03  -0.00    -0.19   0.11  -0.01    -0.19   0.13  -0.01
  21   1    -0.11   0.04   0.03     0.15  -0.09  -0.01     0.11  -0.08  -0.01
  22   1     0.03   0.00  -0.01     0.13  -0.07   0.01     0.17  -0.06   0.00
  23   1    -0.28  -0.09   0.01     0.05   0.03   0.00    -0.15  -0.02   0.01
  24   1    -0.29  -0.11   0.03     0.12   0.03  -0.02    -0.09  -0.05   0.01
  25   1     0.24   0.08   0.00    -0.15  -0.06   0.01     0.18   0.09  -0.00
  26   1     0.25   0.09  -0.01    -0.11  -0.04  -0.01     0.25   0.09   0.01
  27   1     0.02   0.01  -0.02     0.20   0.08  -0.01    -0.20  -0.07   0.00
  28   1     0.03  -0.01   0.01     0.23   0.08  -0.00    -0.17  -0.07   0.00
  29   1    -0.25  -0.10  -0.00    -0.23  -0.09   0.01     0.12   0.05  -0.01
  30   1    -0.24  -0.10   0.01    -0.23  -0.09   0.00     0.13   0.04  -0.00
  31   1     0.21   0.09   0.01     0.14   0.06   0.01    -0.05  -0.02  -0.01
  32   1     0.21   0.10  -0.01     0.13   0.07  -0.01    -0.05  -0.03   0.00
  33   1     0.01   0.01   0.04    -0.01   0.00   0.02     0.01   0.00  -0.01
  34   1     0.03   0.06   0.03     0.01   0.02   0.01    -0.00   0.00   0.00
  35   1    -0.01   0.04  -0.01    -0.02   0.02  -0.00     0.01   0.00  -0.00
                     61                     62                     63
                        a                      a                      a 
 Frequencies --  1415.8965              1415.9381              1491.1242
 Red. masses --     3.1851                 3.1829                 1.9193
 Frc consts  --     0.0000                 0.0000                 0.0000
 IR Inten    --     0.5551                 1.1881                 0.0836
 Raman Activ --     0.0000                 0.0000                 0.0000
 Depolar     --     0.0000                 0.0000                 0.0000
 Atom AN      X      Y      Z        X      Y      Z        X      Y      Z
   1   6    -0.35   0.04   0.11    -0.22   0.03   0.07    -0.01  -0.01   0.01
   2   6     0.06  -0.04   0.01     0.04  -0.03   0.00     0.02   0.03  -0.03
   3   6    -0.01  -0.01   0.01    -0.01  -0.01   0.01     0.03   0.00  -0.02
   4   6    -0.02   0.02  -0.01    -0.01   0.01  -0.00    -0.08  -0.11   0.11
   5   6     0.01  -0.01  -0.00     0.01  -0.00  -0.00    -0.05  -0.04   0.06
   6   6     0.00   0.00  -0.00    -0.01   0.00   0.00    -0.00   0.07   0.05
   7   6    -0.01  -0.00  -0.00     0.01   0.01   0.00     0.04  -0.13  -0.09
   8   6     0.02   0.00  -0.00    -0.03  -0.00   0.01    -0.01  -0.04  -0.02
   9   6    -0.00   0.01   0.01     0.01  -0.01  -0.01    -0.01   0.05   0.03
  10   6    -0.04  -0.01   0.00     0.07   0.02  -0.00     0.01   0.00  -0.00
  11   6     0.15   0.17   0.06    -0.24  -0.26  -0.09     0.00  -0.00  -0.00
  12   1     0.35  -0.18  -0.17     0.23  -0.12  -0.11     0.00   0.01  -0.04
  13   1     0.35   0.11  -0.22     0.22   0.07  -0.14    -0.01  -0.00   0.01
  14   1     0.43  -0.04   0.02     0.27  -0.03   0.01     0.02   0.04  -0.00
  15   1    -0.04   0.07  -0.01    -0.02   0.05  -0.00    -0.06  -0.09   0.01
  16   1    -0.05   0.04  -0.04    -0.03   0.03  -0.03    -0.02  -0.02   0.11
  17   1    -0.01  -0.00   0.00    -0.01  -0.00   0.00    -0.03  -0.01   0.07
  18   1    -0.01  -0.00   0.00    -0.01  -0.00   0.00    -0.05  -0.06   0.00
  19   1     0.03  -0.01   0.00     0.02  -0.01   0.00     0.09   0.06  -0.40
  20   1     0.02  -0.02   0.00     0.02  -0.01   0.00     0.21   0.36  -0.02
  21   1    -0.01   0.01   0.00    -0.01   0.00   0.00     0.02   0.03  -0.16
  22   1    -0.01   0.00  -0.00    -0.01   0.00   0.00     0.09   0.13  -0.01
  23   1     0.00  -0.00  -0.00     0.00  -0.00  -0.00     0.07  -0.21   0.01
  24   1    -0.00  -0.00   0.00     0.00   0.00  -0.00     0.01  -0.08  -0.21
  25   1     0.01   0.00  -0.00    -0.01  -0.01   0.00    -0.14   0.39  -0.02
  26   1     0.00   0.00   0.00    -0.01  -0.00  -0.00    -0.06   0.13   0.38
  27   1    -0.02  -0.01   0.00     0.03   0.01  -0.00     0.01   0.03   0.06
  28   1    -0.02  -0.01  -0.00     0.03   0.01   0.00    -0.01   0.07  -0.01
  29   1     0.00   0.01   0.00    -0.01  -0.01  -0.00     0.01  -0.05  -0.13
  30   1     0.00   0.01   0.00    -0.01  -0.01  -0.00     0.05  -0.13   0.01
  31   1     0.04   0.01  -0.02    -0.07  -0.01   0.04    -0.01   0.00   0.01
  32   1     0.05  -0.01  -0.00    -0.08   0.01   0.00    -0.01   0.01  -0.00
  33   1    -0.22  -0.12  -0.11     0.35   0.19   0.17    -0.00   0.00   0.01
  34   1    -0.07  -0.23  -0.12     0.11   0.37   0.19    -0.00  -0.01  -0.01
  35   1    -0.19  -0.20   0.02     0.29   0.32  -0.04    -0.01   0.01  -0.00
                     64                     65                     66
                        a                      a                      a 
 Frequencies --  1491.1780              1495.8607              1497.1263
 Red. masses --     1.9105                 1.9452                 1.9125
 Frc consts  --     0.0000                 0.0000                 0.0000
 IR Inten    --     0.3641                 0.0591                 0.0760
 Raman Activ --     0.0000                 0.0000                 0.0000
 Depolar     --     0.0000                 0.0000                 0.0000
 Atom AN      X      Y      Z        X      Y      Z        X      Y      Z
   1   6    -0.00  -0.00   0.00    -0.00  -0.01   0.01     0.01   0.02  -0.02
   2   6     0.00   0.03  -0.02     0.01  -0.00  -0.00    -0.07  -0.10   0.10
   3   6    -0.02  -0.05   0.04     0.05   0.06  -0.06    -0.03   0.00   0.01
   4   6    -0.01  -0.05   0.05    -0.04   0.00   0.01     0.04   0.07  -0.06
   5   6     0.05   0.11  -0.12    -0.06  -0.11   0.10    -0.00  -0.03   0.02
   6   6     0.05  -0.12  -0.10     0.03  -0.12  -0.08     0.02  -0.03  -0.03
   7   6     0.05  -0.07  -0.05     0.03   0.01  -0.00     0.04  -0.09  -0.06
   8   6    -0.03   0.04   0.03    -0.04   0.09   0.06    -0.03  -0.00   0.01
   9   6    -0.01   0.01   0.01    -0.01  -0.04  -0.02    -0.05   0.13   0.09
  10   6     0.01  -0.01  -0.01     0.02  -0.08  -0.05     0.02   0.02   0.01
  11   6    -0.00   0.00   0.00    -0.01   0.02   0.01     0.01  -0.01  -0.01
  12   1     0.01   0.00  -0.01    -0.00   0.01  -0.03    -0.02  -0.03   0.12
  13   1     0.00   0.00   0.00    -0.02  -0.01   0.01     0.03   0.01  -0.02
  14   1     0.01   0.01  -0.00     0.01   0.03  -0.00    -0.06  -0.11   0.01
  15   1    -0.04  -0.08   0.00    -0.01   0.00  -0.00     0.21   0.34  -0.02
  16   1    -0.01  -0.02   0.08    -0.01   0.00   0.00     0.06   0.07  -0.38
  17   1     0.01   0.03  -0.14    -0.04  -0.04   0.21     0.02  -0.00  -0.03
  18   1     0.06   0.13  -0.01    -0.12  -0.19   0.01     0.03   0.01   0.00
  19   1     0.02   0.04  -0.18     0.03  -0.00  -0.05    -0.04  -0.05   0.23
  20   1     0.09   0.16  -0.01     0.05   0.03  -0.00    -0.12  -0.21   0.01
  21   1    -0.04  -0.09   0.41     0.05   0.06  -0.37    -0.00   0.02  -0.07
  22   1    -0.22  -0.36   0.03     0.20   0.32  -0.03     0.03   0.07  -0.01
  23   1    -0.15   0.36  -0.01    -0.12   0.31  -0.01    -0.05   0.09  -0.00
  24   1    -0.02   0.12   0.37    -0.03   0.09   0.31    -0.02   0.03   0.10
  25   1    -0.07   0.20  -0.02    -0.04  -0.00   0.00    -0.10   0.25  -0.02
  26   1    -0.05   0.05   0.20    -0.02  -0.00   0.01    -0.04   0.08   0.25
  27   1     0.02  -0.05  -0.14     0.03  -0.09  -0.27     0.02  -0.00  -0.02
  28   1     0.05  -0.13   0.01     0.10  -0.26   0.02     0.03  -0.02   0.00
  29   1     0.01  -0.00  -0.02     0.00   0.04   0.10     0.04  -0.12  -0.35
  30   1     0.01  -0.02   0.00    -0.03   0.11  -0.01     0.14  -0.34   0.02
  31   1    -0.01   0.02   0.05    -0.02   0.08   0.21    -0.01  -0.01  -0.01
  32   1    -0.02   0.05  -0.00    -0.08   0.21  -0.02    -0.01  -0.02   0.00
  33   1     0.00  -0.00  -0.01     0.01  -0.03  -0.08    -0.02   0.01   0.05
  34   1     0.00   0.00   0.00     0.01   0.02   0.01    -0.01  -0.03  -0.02
  35   1     0.00  -0.01   0.00     0.04  -0.08   0.00    -0.04   0.05  -0.00
                     67                     68                     69
                        a                      a                      a 
 Frequencies --  1497.7138              1499.3203              1500.6338
 Red. masses --     1.8814                 1.9701                 1.9584
 Frc consts  --     0.0000                 0.0000                 0.0000
 IR Inten    --     0.2413                 0.3158                 0.0598
 Raman Activ --     0.0000                 0.0000                 0.0000
 Depolar     --     0.0000                 0.0000                 0.0000
 Atom AN      X      Y      Z        X      Y      Z        X      Y      Z
   1   6    -0.00  -0.01   0.01    -0.01  -0.03   0.03    -0.01   0.01  -0.01
   2   6     0.03   0.03  -0.03     0.08   0.08  -0.09     0.00   0.06  -0.05
   3   6     0.03   0.03  -0.04     0.06   0.09  -0.09    -0.07  -0.14   0.13
   4   6    -0.02   0.00   0.01     0.03   0.06  -0.05    -0.02  -0.04   0.04
   5   6    -0.02  -0.04   0.04     0.03   0.03  -0.04    -0.04  -0.06   0.06
   6   6     0.03  -0.11  -0.07    -0.01   0.02   0.02    -0.01  -0.02  -0.00
   7   6     0.01   0.00   0.00    -0.01   0.03   0.02    -0.01   0.07   0.05
   8   6     0.02  -0.08  -0.05    -0.03   0.05   0.04    -0.03   0.06   0.04
   9   6     0.02   0.03   0.02    -0.06   0.13   0.09    -0.04   0.08   0.06
  10   6    -0.05   0.16   0.11     0.03  -0.02  -0.02     0.01   0.02   0.01
  11   6     0.02  -0.04  -0.02     0.01  -0.01  -0.01     0.01  -0.01  -0.01
  12   1     0.00   0.01  -0.05     0.00   0.04  -0.14     0.02  -0.03   0.06
  13   1    -0.02  -0.01   0.01    -0.05  -0.02   0.02     0.04   0.02  -0.01
  14   1     0.02   0.05  -0.00     0.06   0.13  -0.01    -0.01  -0.05   0.00
  15   1    -0.06  -0.09   0.01    -0.18  -0.27   0.02    -0.07  -0.16   0.01
  16   1    -0.02  -0.02   0.11    -0.06  -0.05   0.32    -0.01  -0.04   0.17
  17   1    -0.03  -0.02   0.13    -0.05  -0.05   0.28     0.07   0.09  -0.46
  18   1    -0.08  -0.11   0.01    -0.15  -0.24   0.01     0.24   0.41  -0.02
[...]
 IR Inten    --     1.3133                25.1957                20.2180
 Raman Activ --     0.0000                 0.0000                 0.0000
 Depolar     --     0.0000                 0.0000                 0.0000
 Atom AN      X      Y      Z        X      Y      Z        X      Y      Z
   1   6     0.00   0.00   0.00     0.00   0.01   0.01     0.00   0.01   0.01
   2   6    -0.00  -0.00  -0.01    -0.04  -0.07  -0.06    -0.04  -0.07  -0.01
   3   6    -0.01  -0.02   0.01    -0.02  -0.05  -0.09     0.02   0.02  -0.10
   4   6     0.00   0.00  -0.01     0.01   0.00  -0.07     0.01   0.01  -0.05
   5   6     0.02   0.03  -0.04    -0.01  -0.01   0.04    -0.05  -0.07   0.06
   6   6     0.03  -0.07   0.02    -0.02   0.05   0.09     0.02  -0.05   0.00
   7   6     0.01  -0.03   0.17     0.01  -0.02   0.01    -0.00   0.01   0.01
   8   6     0.01  -0.02   0.04     0.02  -0.06  -0.08    -0.02   0.06   0.04
   9   6    -0.01   0.03  -0.08    -0.03   0.08  -0.01     0.02  -0.05  -0.05
  10   6    -0.04   0.08  -0.14    -0.02   0.04  -0.05    -0.00   0.00  -0.01
  11   6     0.00  -0.01   0.02     0.01  -0.01   0.01    -0.00   0.00   0.00
  12   1    -0.00  -0.00  -0.00    -0.02  -0.04  -0.01    -0.02  -0.02  -0.01
  13   1     0.00   0.00   0.00     0.00  -0.00   0.00     0.00  -0.00   0.00
  14   1     0.00   0.00  -0.00     0.00  -0.00  -0.03    -0.00  -0.00  -0.02
  15   1     0.00   0.00   0.03    -0.00   0.00   0.12    -0.01  -0.02  -0.08
  16   1     0.01   0.01   0.00     0.15   0.26   0.08     0.16   0.27   0.09
  17   1     0.03   0.06   0.02     0.08   0.14   0.04    -0.07  -0.12  -0.05
  18   1    -0.00  -0.01  -0.05    -0.00   0.02   0.26     0.01   0.04   0.43
  19   1    -0.01  -0.01  -0.00    -0.02  -0.04  -0.02    -0.03  -0.06  -0.03
  20   1    -0.00   0.00   0.02     0.00   0.02   0.27     0.00   0.02   0.22
  21   1    -0.09  -0.15  -0.05     0.05   0.08   0.03     0.19   0.31   0.10
  22   1     0.01   0.03   0.21    -0.01  -0.02  -0.19    -0.02  -0.04  -0.33
  23   1     0.01  -0.01   0.04    -0.01   0.00  -0.39     0.00  -0.00   0.07
  24   1    -0.12   0.28  -0.11     0.07  -0.18   0.08    -0.07   0.17  -0.07
  25   1     0.00  -0.02  -0.59     0.00  -0.00  -0.00    -0.00  -0.00  -0.06
  26   1    -0.04   0.11  -0.02    -0.02   0.06  -0.03     0.01  -0.02   0.01
  27   1    -0.03   0.08  -0.03    -0.09   0.22  -0.11     0.09  -0.23   0.11
  28   1     0.00  -0.01  -0.10     0.00   0.01   0.39    -0.00  -0.00  -0.27
  29   1     0.04  -0.11   0.04     0.12  -0.31   0.14    -0.08   0.19  -0.09
  30   1    -0.00   0.01   0.25    -0.01   0.01  -0.13     0.00   0.00   0.27
  31   1     0.13  -0.32   0.13     0.06  -0.14   0.06     0.01  -0.02   0.01
  32   1    -0.00   0.03   0.36    -0.00   0.01   0.13     0.00   0.00   0.01
  33   1    -0.02   0.05  -0.02    -0.01   0.03  -0.01     0.00  -0.01   0.00
  34   1     0.00  -0.00   0.00    -0.01  -0.00   0.00     0.01  -0.00  -0.00
  35   1    -0.00  -0.01  -0.05     0.00  -0.00  -0.01    -0.00  -0.00  -0.01
                     85                     86                     87
                        a                      a                      a 
 Frequencies --  2974.5422              2975.2503              2976.8106
 Red. masses --     1.6748                 1.5212                 1.6891
 Frc consts  --     0.0000                 0.0000                 0.0000
 IR Inten    --    27.9655                23.2611                41.6258
 Raman Activ --     0.0000                 0.0000                 0.0000
 Depolar     --     0.0000                 0.0000                 0.0000
 Atom AN      X      Y      Z        X      Y      Z        X      Y      Z
   1   6    -0.00  -0.01  -0.01    -0.00  -0.01  -0.00     0.00   0.01   0.00
   2   6     0.02   0.03   0.07    -0.00   0.00   0.05    -0.03  -0.04   0.01
   3   6     0.06   0.11   0.01     0.05   0.08  -0.03    -0.01  -0.02  -0.03
   4   6    -0.00   0.00   0.07    -0.01  -0.01   0.04     0.00   0.00  -0.05
   5   6    -0.00  -0.00   0.04     0.01   0.01   0.01    -0.00  -0.01  -0.05
   6   6     0.01  -0.03  -0.02     0.01  -0.02   0.00     0.02  -0.05  -0.05
   7   6     0.01  -0.02  -0.04    -0.01   0.04   0.03     0.00  -0.00   0.06
   8   6    -0.02   0.05  -0.05     0.04  -0.11  -0.02     0.02  -0.04   0.08
   9   6    -0.04   0.11  -0.01     0.02  -0.05   0.02    -0.01   0.03   0.15
  10   6    -0.00  -0.00  -0.09    -0.01   0.04   0.08     0.04  -0.09   0.04
  11   6     0.00  -0.01   0.01     0.00   0.00  -0.01    -0.00   0.01  -0.01
  12   1     0.02   0.03   0.01     0.01   0.02   0.00    -0.01  -0.02  -0.01
  13   1    -0.00   0.00  -0.00    -0.00   0.00  -0.00     0.00  -0.01   0.00
  14   1    -0.00   0.00   0.02    -0.00   0.00   0.01    -0.00   0.00  -0.00
  15   1    -0.00  -0.02  -0.24    -0.00  -0.02  -0.19    -0.00  -0.01  -0.09
  16   1    -0.05  -0.08  -0.02     0.02   0.03   0.02     0.10   0.18   0.06
  17   1    -0.24  -0.41  -0.14    -0.20  -0.34  -0.12     0.03   0.06   0.01
  18   1     0.01   0.02   0.13     0.01   0.03   0.25    -0.00   0.01   0.10
  19   1     0.02   0.03   0.02     0.05   0.08   0.03    -0.02  -0.03  -0.02
  20   1    -0.00  -0.03  -0.29    -0.00  -0.02  -0.20     0.00   0.02   0.20
  21   1     0.01   0.02   0.01    -0.04  -0.06  -0.02     0.02   0.03   0.00
  22   1    -0.01  -0.02  -0.15     0.00  -0.00  -0.03     0.01   0.02   0.16
  23   1     0.00  -0.00   0.11     0.00  -0.00   0.03     0.01  -0.00   0.26
  24   1    -0.05   0.11  -0.05    -0.04   0.10  -0.04    -0.09   0.21  -0.09
  25   1     0.00   0.00   0.16    -0.00  -0.00  -0.21     0.00  -0.01  -0.24
  26   1    -0.03   0.08  -0.04     0.06  -0.16   0.08     0.00  -0.00   0.01
  27   1     0.06  -0.16   0.07    -0.16   0.41  -0.19    -0.07   0.17  -0.07
  28   1    -0.00   0.01   0.09     0.00  -0.00   0.29     0.00  -0.01  -0.19
  29   1     0.17  -0.42   0.19    -0.08   0.20  -0.08     0.04  -0.10   0.07
  30   1    -0.01   0.01  -0.15     0.00  -0.01   0.01    -0.00  -0.02  -0.59
  31   1    -0.00   0.00  -0.01     0.05  -0.13   0.07    -0.15   0.36  -0.16
  32   1     0.00   0.02   0.36    -0.01  -0.01  -0.37     0.01  -0.01   0.01
  33   1    -0.01   0.03  -0.01     0.00  -0.01   0.00     0.01  -0.04   0.01
  34   1     0.00  -0.00   0.00    -0.01   0.00   0.00     0.00   0.00  -0.00
  35   1    -0.00  -0.00  -0.03     0.00   0.00   0.03    -0.00   0.00   0.04
                     88                     89                     90
                        a                      a                      a 
 Frequencies --  2978.7382              2980.6676              2983.8645
 Red. masses --     1.4699                 1.5686                 1.8414
 Frc consts  --     0.0000                 0.0000                 0.0000
 IR Inten    --     6.3968                 3.4507               185.1279
 Raman Activ --     0.0000                 0.0000                 0.0000
 Depolar     --     0.0000                 0.0000                 0.0000
 Atom AN      X      Y      Z        X      Y      Z        X      Y      Z
   1   6    -0.00   0.01  -0.00     0.00  -0.02   0.02    -0.00   0.00  -0.02
   2   6    -0.04  -0.06   0.06     0.05   0.08  -0.10    -0.00   0.00   0.06
   3   6     0.02   0.03  -0.04     0.02   0.03  -0.07     0.01   0.01   0.09
   4   6    -0.01  -0.01  -0.01    -0.03  -0.06  -0.01     0.05   0.10   0.09
   5   6     0.05   0.08  -0.07    -0.00  -0.00   0.03     0.00   0.01   0.12
   6   6    -0.03   0.08   0.05    -0.01   0.02   0.07     0.00  -0.01   0.09
   7   6     0.01  -0.03   0.01    -0.00   0.01   0.06     0.02  -0.05   0.07
   8   6    -0.01   0.03   0.04     0.00  -0.01   0.04     0.02  -0.05   0.04
   9   6     0.01  -0.03  -0.01     0.01  -0.02   0.02     0.02  -0.05   0.02
  10   6     0.01  -0.04  -0.01     0.03  -0.07  -0.02     0.03  -0.06  -0.01
  11   6    -0.01   0.01   0.00    -0.01   0.01   0.00    -0.01   0.01  -0.00
  12   1    -0.01  -0.01  -0.00     0.02   0.03   0.01     0.00   0.01  -0.00
  13   1     0.01  -0.02   0.01    -0.02   0.04  -0.02     0.01  -0.02   0.01
  14   1    -0.00   0.00   0.01     0.00  -0.01  -0.06    -0.00   0.01   0.05
  15   1    -0.01  -0.04  -0.32     0.01   0.06   0.49    -0.00  -0.02  -0.23
  16   1     0.16   0.26   0.09    -0.19  -0.33  -0.12     0.01   0.01   0.01
  17   1    -0.09  -0.15  -0.06    -0.09  -0.15  -0.06    -0.01  -0.01   0.01
  18   1     0.00   0.02   0.21     0.00   0.03   0.29    -0.00  -0.03  -0.33
  19   1     0.04   0.07   0.02     0.14   0.24   0.08    -0.21  -0.36  -0.11
  20   1    -0.00  -0.00  -0.00    -0.01  -0.01  -0.06     0.01  -0.00  -0.20
  21   1    -0.20  -0.33  -0.11     0.01   0.02   0.01     0.01   0.01   0.02
  22   1     0.02   0.05   0.39    -0.00  -0.01  -0.10    -0.01  -0.04  -0.42
  23   1    -0.01   0.01  -0.31    -0.01   0.00  -0.29    -0.01  -0.00  -0.33
  24   1     0.13  -0.30   0.13     0.03  -0.08   0.04    -0.01   0.02   0.00
  25   1     0.00  -0.00   0.01     0.00  -0.01  -0.25     0.00  -0.01  -0.19
  26   1    -0.04   0.11  -0.05     0.01  -0.03   0.02    -0.07   0.18  -0.07
  27   1     0.04  -0.11   0.05    -0.01   0.03  -0.01    -0.07   0.17  -0.07
  28   1    -0.00  -0.00  -0.19     0.00  -0.01  -0.14     0.00  -0.01  -0.05
  29   1    -0.05   0.11  -0.05    -0.03   0.09  -0.04    -0.06   0.16  -0.07
  30   1     0.00  -0.00   0.09     0.00  -0.01  -0.05     0.00  -0.01   0.01
  31   1    -0.05   0.13  -0.06    -0.11   0.27  -0.12    -0.10   0.23  -0.11
  32   1     0.00   0.00   0.12     0.01  -0.00   0.20     0.00  -0.00   0.14
  33   1     0.01  -0.02   0.01     0.01  -0.03   0.01     0.01  -0.04   0.02
  34   1     0.01  -0.00  -0.00     0.02  -0.00  -0.01     0.02  -0.00  -0.01
  35   1    -0.00  -0.00  -0.01    -0.00   0.00  -0.01    -0.00   0.00  -0.01
                     91                     92                     93
                        a                      a                      a 
 Frequencies --  2984.7509              2990.6076              2996.9512
 Red. masses --     1.6243                 1.5373                 1.6289
 Frc consts  --     0.0000                 0.0000                 0.0000
 IR Inten    --    77.8968               153.2474               178.6121
 Raman Activ --     0.0000                 0.0000                 0.0000
 Depolar     --     0.0000                 0.0000                 0.0000
 Atom AN      X      Y      Z        X      Y      Z        X      Y      Z
   1   6    -0.00  -0.01   0.00     0.00  -0.01   0.01    -0.00  -0.01   0.00
   2   6     0.02   0.03  -0.02     0.02   0.03  -0.04     0.02   0.03  -0.01
   3   6     0.02   0.03  -0.01     0.03   0.04  -0.04     0.02   0.04  -0.00
   4   6     0.02   0.04   0.00     0.05   0.09  -0.05     0.07   0.13   0.00
   5   6     0.01   0.02   0.01     0.01   0.02  -0.05     0.02   0.04   0.00
   6   6     0.00  -0.01   0.05     0.01  -0.03  -0.05    -0.02   0.05  -0.01
   7   6     0.04  -0.12   0.06     0.03  -0.08  -0.04    -0.05   0.14  -0.02
   8   6    -0.01   0.02   0.08     0.02  -0.05  -0.04    -0.02   0.05  -0.00
   9   6    -0.01   0.03   0.07     0.02  -0.04  -0.04    -0.01   0.03   0.01
  10   6    -0.03   0.09   0.08     0.01  -0.04  -0.03    -0.01   0.02   0.00
  11   6     0.02  -0.01  -0.02    -0.01   0.01   0.01     0.01  -0.01  -0.00
  12   1     0.01   0.02   0.01     0.02   0.03   0.01     0.02   0.03   0.01
  13   1    -0.01   0.02  -0.01    -0.02   0.03  -0.02    -0.01   0.02  -0.01
  14   1    -0.00  -0.00  -0.01    -0.00  -0.01  -0.04    -0.00  -0.00  -0.01
  15   1     0.00   0.01   0.11     0.01   0.02   0.19     0.00   0.01   0.07
  16   1    -0.07  -0.12  -0.04    -0.09  -0.15  -0.05    -0.06  -0.11  -0.04
  17   1    -0.07  -0.12  -0.04    -0.09  -0.15  -0.06    -0.08  -0.14  -0.05
  18   1     0.00   0.01   0.09     0.00   0.02   0.19     0.00   0.01   0.05
  19   1    -0.08  -0.14  -0.05    -0.20  -0.36  -0.13    -0.27  -0.48  -0.16
  20   1     0.00   0.01   0.04     0.01   0.04   0.29     0.01   0.03   0.16
  21   1    -0.03  -0.05  -0.01    -0.05  -0.09  -0.03    -0.09  -0.14  -0.04
  22   1     0.00  -0.00  -0.03     0.01   0.02   0.21     0.00   0.01   0.03
  23   1    -0.01  -0.00  -0.17     0.01  -0.00   0.23    -0.00   0.01  -0.04
  24   1    -0.01   0.01   0.00    -0.04   0.09  -0.04     0.07  -0.16   0.06
  25   1     0.01  -0.02  -0.01     0.00  -0.00   0.28    -0.01   0.01  -0.18
  26   1    -0.17   0.44  -0.19    -0.11   0.30  -0.14     0.19  -0.52   0.23
  27   1     0.03  -0.08   0.05    -0.07   0.18  -0.09     0.06  -0.16   0.07
  28   1    -0.00  -0.01  -0.33     0.00   0.00   0.23    -0.00   0.00  -0.07
  29   1     0.04  -0.09   0.05    -0.06   0.15  -0.07     0.05  -0.12   0.05
  30   1    -0.00  -0.01  -0.28     0.00   0.00   0.20    -0.00   0.00  -0.08
  31   1     0.12  -0.30   0.15    -0.05   0.13  -0.06     0.03  -0.07   0.03
  32   1    -0.01  -0.01  -0.45     0.00   0.00   0.17    -0.00   0.00  -0.05
  33   1    -0.01   0.03  -0.02     0.01  -0.03   0.01    -0.01   0.03  -0.01
  34   1    -0.05   0.01   0.02     0.03  -0.00  -0.01    -0.02   0.00   0.01
  35   1     0.00   0.00   0.06    -0.00  -0.00  -0.04     0.00  -0.00   0.01
                     94                     95                     96
                        a                      a                      a 
 Frequencies --  3030.1854              3030.6819              3032.7492
 Red. masses --     1.9578                 1.9588                 1.9306
 Frc consts  --     0.0000                 0.0000                 0.0000
 IR Inten    --    59.9629                61.1937                62.3560
 Raman Activ --     0.0000                 0.0000                 0.0000
 Depolar     --     0.0000                 0.0000                 0.0000
 Atom AN      X      Y      Z        X      Y      Z        X      Y      Z
   1   6     0.00  -0.00   0.01     0.09   0.15   0.23     0.02  -0.24   0.16
   2   6     0.00   0.00   0.00     0.01   0.02   0.04    -0.01  -0.02   0.02
   3   6     0.00   0.00   0.00     0.00   0.01   0.01    -0.01  -0.01   0.01
   4   6     0.00   0.00  -0.00     0.00   0.00   0.00    -0.00  -0.00   0.00
   5   6     0.00   0.00  -0.00     0.00   0.00   0.00    -0.00  -0.00   0.00
   6   6    -0.00   0.00  -0.00    -0.00   0.00   0.00     0.00  -0.00   0.00
   7   6    -0.00   0.00  -0.00    -0.00   0.00   0.00     0.00  -0.00   0.00
   8   6    -0.00   0.00  -0.00    -0.00   0.00   0.00     0.00  -0.00   0.00
   9   6    -0.00   0.01  -0.01     0.00  -0.00   0.00    -0.00   0.00   0.00
  10   6    -0.01   0.03  -0.04     0.00  -0.00   0.00    -0.00   0.00   0.00
  11   6    -0.08   0.16  -0.23     0.01  -0.01  -0.00    -0.01   0.00   0.01
  12   1     0.00  -0.00   0.00    -0.33  -0.54  -0.14     0.26   0.39   0.15
  13   1    -0.00   0.01  -0.00     0.00   0.04   0.02    -0.32   0.54  -0.27
  14   1     0.00  -0.00  -0.02     0.01  -0.05  -0.69     0.00  -0.08  -0.43
  15   1    -0.00  -0.00  -0.00    -0.00  -0.01  -0.09    -0.00  -0.01  -0.08
  16   1    -0.00  -0.00  -0.00    -0.04  -0.07  -0.02     0.04   0.07   0.02
  17   1    -0.00  -0.00  -0.00    -0.01  -0.02  -0.01     0.02   0.04   0.01
  18   1    -0.00   0.00  -0.00    -0.00  -0.00  -0.03    -0.00  -0.00  -0.05
  19   1    -0.00  -0.00  -0.00    -0.01  -0.01  -0.00     0.01   0.02   0.01
  20   1     0.00   0.00   0.00     0.00  -0.00  -0.01    -0.00  -0.00  -0.01
  21   1    -0.00  -0.00  -0.00    -0.00  -0.00  -0.00     0.00   0.01   0.00
  22   1     0.00   0.00   0.00    -0.00  -0.00  -0.01    -0.00  -0.00  -0.01
  23   1     0.00   0.00   0.00    -0.00  -0.00  -0.00     0.00  -0.00  -0.00
  24   1     0.00  -0.00   0.00     0.00  -0.00   0.00    -0.00   0.00  -0.00
  25   1    -0.00   0.00   0.00    -0.00  -0.00  -0.00     0.00  -0.00  -0.00
  26   1     0.00  -0.01   0.00     0.00  -0.00   0.00    -0.00   0.00  -0.00
  27   1     0.00  -0.01   0.00     0.00  -0.00   0.00    -0.00   0.00  -0.00
  28   1     0.00   0.00   0.01     0.00  -0.00  -0.00     0.00  -0.00  -0.00
  29   1     0.01  -0.03   0.01    -0.00   0.00  -0.00     0.00  -0.00   0.00
  30   1    -0.00   0.00   0.03    -0.00  -0.00  -0.00     0.00  -0.00  -0.00
  31   1     0.03  -0.08   0.03    -0.00   0.00  -0.00     0.00  -0.00   0.00
  32   1    -0.00   0.00   0.08     0.00  -0.00   0.00     0.00  -0.00  -0.01
  33   1     0.25  -0.63   0.25    -0.01   0.02  -0.01     0.00  -0.01   0.01
  34   1     0.02   0.02  -0.05    -0.01   0.00   0.01     0.03  -0.00  -0.01
  35   1    -0.00   0.06   0.61     0.00  -0.00   0.00    -0.00  -0.00  -0.04
                     97                     98                     99
                        a                      a                      a 
 Frequencies --  3032.9598              3038.1674              3038.5059
 Red. masses --     1.9033                 1.2617                 1.2880
 Frc consts  --     0.0000                 0.0000                 0.0000
 IR Inten    --    63.8927                42.8770                22.7882
 Raman Activ --     0.0000                 0.0000                 0.0000
 Depolar     --     0.0000                 0.0000                 0.0000
 Atom AN      X      Y      Z        X      Y      Z        X      Y      Z
   1   6    -0.00  -0.02   0.00    -0.14   0.04   0.02     0.03  -0.01  -0.01
   2   6    -0.00  -0.00  -0.00    -0.01  -0.00   0.00     0.00   0.00  -0.00
   3   6    -0.00  -0.00  -0.00    -0.00  -0.00   0.00     0.00   0.00  -0.00
   4   6    -0.00  -0.00  -0.00    -0.00  -0.00  -0.00     0.00   0.00   0.00
   5   6    -0.00  -0.00  -0.00    -0.00  -0.00   0.00     0.00   0.00  -0.00
   6   6     0.00  -0.00  -0.00     0.00  -0.00  -0.00    -0.00   0.00   0.00
   7   6     0.00  -0.00  -0.00     0.00  -0.00   0.00     0.00  -0.00  -0.00
   8   6     0.00  -0.00  -0.00     0.00  -0.00  -0.00    -0.00   0.00   0.00
   9   6     0.00  -0.01  -0.01     0.00  -0.00  -0.00     0.00  -0.00  -0.00
  10   6     0.01  -0.02  -0.02    -0.00  -0.00  -0.00    -0.00  -0.00  -0.00
  11   6     0.19  -0.14  -0.16    -0.03  -0.02  -0.00    -0.14  -0.07  -0.01
  12   1     0.02   0.03   0.01     0.23   0.42   0.13    -0.06  -0.10  -0.03
  13   1    -0.02   0.03  -0.02     0.28  -0.53   0.28    -0.07   0.13  -0.07
  14   1    -0.00  -0.00  -0.00    -0.02  -0.04  -0.49     0.00   0.01   0.12
  15   1    -0.00  -0.00  -0.00    -0.00  -0.00  -0.01     0.00   0.00   0.00
  16   1     0.00   0.01   0.00     0.00   0.01   0.00    -0.00  -0.00  -0.00
  17   1     0.00   0.00   0.00     0.01   0.01   0.00    -0.00  -0.00  -0.00
  18   1    -0.00  -0.00  -0.00    -0.00  -0.00  -0.01     0.00   0.00   0.00
  19   1     0.00   0.00   0.00     0.00   0.00   0.00    -0.00  -0.00  -0.00
  20   1    -0.00  -0.00   0.00     0.00  -0.00  -0.00    -0.00   0.00  -0.00
  21   1     0.00   0.00   0.00     0.00   0.00   0.00    -0.00  -0.00  -0.00
  22   1    -0.00   0.00   0.00    -0.00  -0.00  -0.00     0.00   0.00   0.00
  23   1     0.00  -0.00   0.00     0.00  -0.00   0.00    -0.00   0.00  -0.00
  24   1    -0.00   0.00  -0.00    -0.00   0.00  -0.00     0.00  -0.00   0.00
  25   1    -0.00  -0.00   0.01     0.00  -0.00  -0.00     0.00   0.00   0.00
  26   1    -0.00   0.01  -0.01    -0.00   0.00  -0.00    -0.00   0.00  -0.00
  27   1    -0.00   0.01  -0.01    -0.00   0.00  -0.00     0.00  -0.00   0.00
  28   1     0.00   0.00   0.02     0.00   0.00   0.00     0.00   0.00  -0.00
  29   1    -0.02   0.04  -0.02    -0.00   0.00  -0.00    -0.00   0.01  -0.00
  30   1    -0.00  -0.00   0.05     0.00  -0.00   0.00     0.00  -0.00   0.01
  31   1    -0.03   0.06  -0.03    -0.00   0.00  -0.00    -0.00  -0.00  -0.00
  32   1     0.00   0.00   0.09    -0.00  -0.00   0.00    -0.00  -0.00   0.00
  33   1    -0.13   0.39  -0.20    -0.04   0.09  -0.04    -0.16   0.36  -0.16
  34   1    -0.57   0.09   0.20     0.16  -0.03  -0.06     0.67  -0.13  -0.25
  35   1     0.04   0.01   0.57    -0.00   0.00   0.12    -0.01   0.02   0.45
