35
 energy: -35.812662809070 gnorm: 0.030148466769 xtb: 6.6.1 (8d0f1dd)
C           -5.75234400000000        1.19574700000000        0.13645500000000
C           -4.31883100000000        1.08564500000000       -0.35897600000000
C           -3.58205600000000       -0.12064300000000        0.22548300000000
C           -2.13723300000000       -0.23316000000000       -0.26181300000000
C           -1.40665900000000       -1.44554100000000        0.31644500000000
C            0.02673800000000       -1.60200500000000       -0.20019200000000
C            0.96384500000000       -0.47964500000000        0.24752200000000
C            2.40351300000000       -0.68031400000000       -0.22586700000000
C            3.33804400000000        0.44636500000000        0.21489600000000
C            4.77600900000000        0.25764900000000       -0.27167700000000
C            5.69418500000000        1.39186400000000        0.15565800000000
H           -6.32834700000000        0.30335000000000       -0.11787400000000
H           -6.27147600000000        2.05555900000000       -0.29462400000000
H           -5.78843500000000        1.30176800000000        1.22289600000000
H           -4.30077100000000        1.02483200000000       -1.45580600000000
H           -3.76344900000000        2.00233100000000       -0.11762000000000
H           -4.12739900000000       -1.04019000000000       -0.02180600000000
H           -3.59822000000000       -0.06680300000000        1.32139500000000
H           -1.59682600000000        0.68677000000000       -0.00909100000000
H           -2.12056000000000       -0.28152200000000       -1.35770500000000
H           -1.98669300000000       -2.35070400000000        0.09216900000000
H           -1.39629500000000       -1.37716400000000        1.41136600000000
H            0.01825200000000       -1.65531500000000       -1.29604800000000
H            0.44078900000000       -2.56432500000000        0.12936800000000
H            0.94393500000000       -0.39792100000000        1.34158500000000
H            0.59382500000000        0.48609500000000       -0.11721700000000
H            2.78341200000000       -1.64133600000000        0.14316600000000
H            2.42264700000000       -0.76783700000000       -1.31950200000000
H            2.95095600000000        1.40789600000000       -0.14598300000000
H            3.32643400000000        0.52870600000000        1.30931200000000
H            5.16156300000000       -0.70199900000000        0.09890100000000
H            4.77911200000000        0.16034500000000       -1.36595500000000
H            5.34172900000000        2.35173500000000       -0.22837600000000
H            6.71712700000000        1.25119100000000       -0.20329200000000
H            5.73659100000000        1.47769900000000        1.24369900000000
35
 energy: -35.814609604500 gnorm: 0.013532142765 xtb: 6.6.1 (8d0f1dd)
C           -5.74466288644154        1.18865258298672        0.13821671642901
C           -4.31148401575749        1.08185799716078       -0.35982735637571
C           -3.58046772452529       -0.12519646866037        0.22717067378026
C           -2.13735021102304       -0.22819829224694       -0.26382486500255
C           -1.40384673074461       -1.43608793234171        0.31807033886624
C            0.02696111811776       -1.59208737439751       -0.20232460270972
C            0.96604273802781       -0.47390223311977        0.24926862651955
C            2.40314147341230       -0.68218085959447       -0.22657384885537
C            3.33332133898972        0.44648471515661        0.21604160541099
C            4.76845353971204        0.25275379528589       -0.27244327414077
C            5.68357474829861        1.38931843073342        0.15732386008916
H           -6.31453270496083        0.29722334001277       -0.12345647378304
H           -6.24888730559471        2.05002464390356       -0.29942146401449
H           -5.77250960990745        1.29840492290479        1.22224981719155
H           -4.30805673712741        1.00979267004301       -1.45312414678062
H           -3.76571386217551        1.99633701026103       -0.10200695141781
H           -4.12256742523338       -1.03975978833006       -0.03641389349947
H           -3.58826397456743       -0.05587318359071        1.32027458728285
H           -1.60490653968025        0.68855896911321        0.00545938529223
H           -2.12932595643250       -0.29282121057853       -1.35720057115566
H           -1.97199026621031       -2.34135677597437        0.07585562892064
H           -1.38604979267108       -1.35907099005213        1.41038542893395
H            0.01235154251487       -1.63533945396305       -1.29657789985654
H            0.42956560331114       -2.55036477339920        0.14484532200253
H            0.95122987817130       -0.40978064627320        1.34259618234745
H            0.60249630543282        0.48490229633346       -0.13153274833676
H            2.78029361565474       -1.63614683782915        0.15755297165823
H            2.41601776871646       -0.75401953596766       -1.31952136497242
H            2.95055632972462        1.40118573177673       -0.16079053828273
H            3.32971232850361        0.51340632175777        1.30934279743824
H            5.15693083311202       -0.69636260821969        0.11302796083245
H            4.77060042966273        0.17453686417410       -1.36527512879835
H            5.32871076336723        2.34303486863733       -0.23327765626780
H            6.69909869549955        1.23488530103192       -0.20693081684564
H            5.72466869282349        1.46631150326541        1.24373369810017
35
 energy: -35.814921847295 gnorm: 0.002123454532 xtb: 6.6.1 (8d0f1dd)
C           -5.74045568381241        1.18379488873622        0.13935806502732
C           -4.30578335475396        1.07882906067097       -0.36071468026988
C           -3.57775938695647       -0.12828751394112        0.22776545112074
C           -2.13535443878215       -0.22345152973440       -0.26527123489089
C           -1.40153722241621       -1.42953301470282        0.31897689666509
C            0.02834175107016       -1.58514715659266       -0.20323970828787
C            0.96644984958060       -0.46755415563169        0.25072533421254
C            2.40141257561326       -0.68387459120805       -0.22702806341036
C            3.32925621855088        0.44578112575133        0.21668118949402
C            4.76227973187016        0.24789921445675       -0.27355237797197
C            5.67675484449699        1.38695334887858        0.15834192498566
H           -6.30520677038249        0.29213271407479       -0.12529067338604
H           -6.23700864238596        2.04598975153725       -0.30101961001256
H           -5.76241391784042        1.29303667734357        1.22180717490457
H           -4.30805770383556        1.00149384577955       -1.45091509937377
H           -3.76420329425228        1.99048907018870       -0.09567891604929
H           -4.11694334663642       -1.03989261752120       -0.04282981059507
H           -3.58219092546400       -0.05314759633300        1.31825618285944
H           -1.61021309891513        0.69309176826259        0.00960413467184
H           -2.13198764138812       -0.29619640312654       -1.35603079272856
H           -1.96279655391615       -2.33459024752284        0.06995621852429
H           -1.37968849730482       -1.34652219246573        1.40865129295326
H            0.01034868487776       -1.62147584110067       -1.29555493317552
H            0.42481155819032       -2.54104789798645        0.15051696199963
H            0.95483186875999       -0.41237476087903        1.34237972263373
H            0.60930116100251        0.48870297826897       -0.13574974569191
H            2.77648380650237       -1.63353685371771        0.16357281057325
H            2.41146383709586       -0.74923195593397       -1.31822524008131
H            2.94879704456462        1.39613190467549       -0.16688403548995
H            3.32876280154184        0.50638663502162        1.30805973099496
H            5.15071198289231       -0.69561051079478        0.11792736812370
H            4.76328757270400        0.17839155541453       -1.36428218554571
H            5.31879688282527        2.33647404229069       -0.23474724780261
H            6.68842652391464        1.22557896323597       -0.20812240749364
H            5.71419378298900        1.45944029460506        1.24344830251289
35
 energy: -35.814941265538 gnorm: 0.000848375054 xtb: 6.6.1 (8d0f1dd)
C           -5.73944275537764        1.18210838688552        0.13965452322684
C           -4.30418185045880        1.07794031004001       -0.36112542914141
C           -3.57653547953169       -0.12911462810564        0.22751180069723
C           -2.13423654196985       -0.22191645416968       -0.26605157312514
C           -1.40072143725241       -1.42720402423751        0.31957767832715
C            0.02887064469947       -1.58255222226820       -0.20356115688620
C            0.96629449281970       -0.46531942169672        0.25158350631363
C            2.40039254723849       -0.68411274096898       -0.22684705075200
C            3.32815305413611        0.44542944769542        0.21661734326356
C            4.76045404176418        0.24588903908354       -0.27417396207107
C            5.67501063334686        1.38555150101609        0.15847195677635
H           -6.30276006171164        0.28995879223584       -0.12538848928762
H           -6.23585768466701        2.04429642058505       -0.30013732499075
H           -5.75989586314912        1.29003250316941        1.22201490043154
H           -4.30638224373666        1.00025602142658       -1.45083312687287
H           -3.76270131351613        1.98899662186349       -0.09574796100677
H           -4.11427612316466       -1.04087979460389       -0.04364860153331
H           -3.58078310660659       -0.05468597498913        1.31764494687207
H           -1.61109784544365        0.69543512927226        0.00837367881041
H           -2.13093504907302       -0.29516323755683       -1.35632842747373
H           -1.96165399038719       -2.33203584344632        0.07141209413836
H           -1.37811745114433       -1.34249340727465        1.40870819996928
H            0.01062728594630       -1.61710348801532       -1.29552052735784
H            0.42573365817385       -2.53796402334685        0.14936997037760
H            0.95508293804646       -0.41043223610603        1.34279610448277
H            0.61115431144078        0.49131902388309       -0.13463133058730
H            2.77432459023226       -1.63347337489208        0.16424327018172
H            2.40995897531349       -0.74997847293736       -1.31757410846267
H            2.94767234236238        1.39518511320437       -0.16720623612642
H            3.32734009870162        0.50603395093100        1.30757868316696
H            5.14803280903963       -0.69742413384016        0.11731304676626
H            4.76087056176161        0.17683578080221       -1.36445766443525
H            5.31581370937967        2.33424998975776       -0.23478742186591
H            6.68653554335749        1.22408259879625       -0.20741715374039
H            5.71036855943005        1.45737584780746        1.24345784191492
35
 energy: -35.814954385069 gnorm: 0.001783365093 xtb: 6.6.1 (8d0f1dd)
C           -5.73784855519755        1.17833379335324        0.14027435263155
C           -4.30224352432841        1.07635690229716       -0.36195368761893
C           -3.57423377322106       -0.13021517168016        0.22601818098153
C           -2.13196906091243       -0.21902773195192       -0.26741430082093
C           -1.39888537453070       -1.42246203306504        0.32095806510395
C            0.02963842752301       -1.57729209661906       -0.20399750099435
C            0.96580716300673       -0.46092420958328        0.25318049166453
C            2.39829158266826       -0.68414687806670       -0.22589106714090
C            3.32672677292430        0.44454524616445        0.21612961812028
C            4.75765424843702        0.24209803701288       -0.27544749106636
C            5.67218274557124        1.38206545015272        0.15858921575941
H           -6.29878926228123        0.28514494284800       -0.12571131406356
H           -6.23592317381319        2.04042275847766       -0.29703402311591
H           -5.75581387830309        1.28309669334639        1.22284824608447
H           -4.30369708373464        0.99891686558526       -1.45140576139294
H           -3.76053331766443        1.98696199642544       -0.09661004439847
H           -4.10911586080807       -1.04311703981739       -0.04589973543467
H           -3.57852454369061       -0.05832427594589        1.31610117399969
H           -1.61180460033649        0.70035140698412        0.00525776374899
H           -2.12779305008303       -0.29277897375500       -1.35735797455750
H           -1.96068560751607       -2.32726290755171        0.07673894811719
H           -1.37463233315657       -1.33396670794954        1.40947584100407
H            0.01077275413968       -1.60815057008917       -1.29577031312872
H            0.42868194933422       -2.53262516638658        0.14530320289325
H            0.95482815721970       -0.40578205812912        1.34408915804370
H            0.61380027235555        0.49723239614039       -0.13167286176962
H            2.76991130786075       -1.63377820977190        0.16584789393403
H            2.40692572057746       -0.75226194431733       -1.31620825881085
H            2.94612227372806        1.39396030928318       -0.16776866141479
H            3.32510400906503        0.50632284535953        1.30680460228269
H            5.14325489082618       -0.70200371237929        0.11531686197759
H            4.75699535717537        0.17281902652835       -1.36542746800945
H            5.31118771076064        2.32976909302777       -0.23499351286742
H            6.68431310503377        1.22175488560193       -0.20509744691934
H            5.70340655137061        1.45309003847061        1.24361980717780
35
 energy: -35.814959036606 gnorm: 0.000517965311 xtb: 6.6.1 (8d0f1dd)
C           -5.73813050627497        1.17720838313839        0.14048296818720
C           -4.30314375349556        1.07635839955945       -0.36214489167385
C           -3.57430056950960       -0.12992522808910        0.22510783546199
C           -2.13194170052023       -0.21871720474848       -0.26750556488103
C           -1.39855492681961       -1.42158802665138        0.32151253077137
C            0.02929100756890       -1.57646454906348       -0.20410836687894
C            0.96581972574247       -0.46056049447243        0.25328000179984
C            2.39825919759452       -0.68382964260580       -0.22542748929390
C            3.32728770554194        0.44442717723832        0.21582178126859
C            4.75817697190714        0.24179570401204       -0.27558580265047
C            5.67248418081318        1.38114751434727        0.15862192996051
H           -6.29912325547693        0.28404362551696       -0.12598568989414
H           -6.23730762999866        2.03936631303685       -0.29573232878125
H           -5.75613792641602        1.28128773361948        1.22324604765089
H           -4.30480328307750        0.99951062176970       -1.45191798339299
H           -3.76171421536263        1.98745045006014       -0.09673911914597
H           -4.10896114601226       -1.04311100512214       -0.04732740820210
H           -3.57895706446287       -0.05853341648283        1.31547848592416
H           -1.61153715398445        0.70084369720019        0.00506970863569
H           -2.12703242048330       -0.29285162056089       -1.35771229098343
H           -1.96088777458706       -2.32682703900621        0.07880274386043
H           -1.37369993641803       -1.33214420305322        1.41017681885755
H            0.00992276947669       -1.60667511757367       -1.29613189232072
H            0.42877414023778       -2.53238621275514        0.14403712935418
H            0.95441387156788       -0.40542878938184        1.34448485082463
H            0.61354572801925        0.49781761578736       -0.13148932476712
H            2.76961500814053       -1.63369569700358        0.16676697667260
H            2.40680266267162       -0.75260939865998       -1.31597459948765
H            2.94701502673631        1.39415956393753       -0.16837571144245
H            3.32598046279366        0.50680517707230        1.30672804487279
H            5.14355698829086       -0.70278255115837        0.11502282815799
H            4.75765797692609        0.17238089386486       -1.36583825541843
H            5.31219065299272        2.32916691304599       -0.23518558256162
H            6.68504797372666        1.22110089042935       -0.20431949210119
H            5.70350321215145        1.45238252275234        1.24375311161683
