      -----------------------------------------------------------      
     |                   =====================                   |     
     |                           x T B                           |     
     |                   =====================                   |     
     |                         S. Grimme                         |     
     |          Mulliken Center for Theoretical Chemistry        |     
     |                    University of Bonn                     |     
      -----------------------------------------------------------      

   * xtb version 6.6.1 (8d0f1dd) compiled by 'stahn@M-Bot' on 2023-08-01

   xtb is free software: you can redistribute it and/or modify it under
   the terms of the GNU Lesser General Public License as published by
   the Free Software Foundation, either version 3 of the License, or
   (at your option) any later version.
   
   xtb is distributed in the hope that it will be useful,
   but WITHOUT ANY WARRANTY; without even the implied warranty of
   MERCHANTABILITY or FITNESS FOR A PARTICULAR PURPOSE.  See the
   GNU Lesser General Public License for more details.
   
   Cite this work as:
   * C. Bannwarth, E. Caldeweyher, S. Ehlert, A. Hansen, P. Pracht,
     J. Seibert, S. Spicher, S. Grimme, WIREs Comput. Mol. Sci., 2020, 11,
     e01493. DOI: 10.1002/wcms.1493
   
   for GFN2-xTB:
   * C. Bannwarth, S. Ehlert and S. Grimme., J. Chem. Theory Comput., 2019,
     15, 1652-1671. DOI: 10.1021/acs.jctc.8b01176
   for GFN1-xTB:
   * S. Grimme, C. Bannwarth, P. Shushkov, J. Chem. Theory Comput., 2017,
     13, 1989-2009. DOI: 10.1021/acs.jctc.7b00118
   for GFN0-xTB:
   * P. Pracht, E. Caldeweyher, S. Ehlert, S. Grimme, ChemRxiv, 2019, preprint.
     DOI: 10.26434/chemrxiv.8326202.v1
   for GFN-FF:
   * S. Spicher and S. Grimme, Angew. Chem. Int. Ed., 2020, 59, 15665-15673.
     DOI: 10.1002/anie.202004239
   
   for ALPB and GBSA implicit solvation:
   * S. Ehlert, M. Stahn, S. Spicher, S. Grimme, J. Chem. Theory Comput.,
     2021, 17, 4250-4261. DOI: 10.1021/acs.jctc.1c00471
   
   for DFT-D4:
   * E. Caldeweyher, C. Bannwarth and S. Grimme, J. Chem. Phys., 2017,
     147, 034112. DOI: 10.1063/1.4993215
   * E. Caldeweyher, S. Ehlert, A. Hansen, H. Neugebauer, S. Spicher,
     C. Bannwarth and S. Grimme, J. Chem. Phys., 2019, 150, 154122.
     DOI: 10.1063/1.5090222
   * E. Caldeweyher, J.-M. Mewes, S. Ehlert and S. Grimme, Phys. Chem. Chem. Phys.
     2020, 22, 8499-8512. DOI: 10.1039/D0CP00502A
   
   for sTDA-xTB:
   * S. Grimme and C. Bannwarth, J. Chem. Phys., 2016, 145, 054103.
     DOI: 10.1063/1.4959605
   
   in the mass-spec context:
   * V. Asgeirsson, C. Bauer and S. Grimme, Chem. Sci., 2017, 8, 4879.
     DOI: 10.1039/c7sc00601b
   * J. Koopman and S. Grimme, ACS Omega 2019, 4, 12, 15120-15133.
     DOI: 10.1021/acsomega.9b02011
   
   for metadynamics refer to:
   * S. Grimme, J. Chem. Theory Comput., 2019, 155, 2847-2862
     DOI: 10.1021/acs.jctc.9b00143
   
   for SPH calculations refer to:
   * S. Spicher and S. Grimme, J. Chem. Theory Comput., 2021, 17, 1701-1714
     DOI: 10.1021/acs.jctc.0c01306
   
   with help from (in alphabetical order)
   P. Atkinson, C. Bannwarth, F. Bohle, G. Brandenburg, E. Caldeweyher
   M. Checinski, S. Dohm, S. Ehlert, S. Ehrlich, I. Gerasimov, C. Hölzer
   A. Katbashev, J. Koopman, C. Lavigne, S. Lehtola, F. März, M. Müller,
   F. Musil, H. Neugebauer, J. Pisarek, C. Plett, P. Pracht, F. Pultar,
   J. Seibert, P. Shushkov, S. Spicher, M. Stahn, M. Steiner, T. Strunk,
   J. Stückrath, T. Rose, and J. Unsleber
   
 * started run on 2024/04/20 at 10:57:16.968     

           -------------------------------------------------
          |                Calculation Setup                |
           -------------------------------------------------

          program call               : xtb folded.xyz --gfn 2 --ohess -P 4
          coordinate file            : folded.xyz
          omp threads                :                     4

   ID    Z sym.   atoms
    1    6 C      1-13
    2    1 H      14-41

           -------------------------------------------------
          |                 G F N 2 - x T B                 |
           -------------------------------------------------

        Reference                      10.1021/acs.jctc.8b01176
      * Hamiltonian:
        H0-scaling (s, p, d)           1.850000    2.230000    2.230000
        zeta-weighting                 0.500000
      * Dispersion:
        s8                             2.700000
        a1                             0.520000
        a2                             5.000000
        s9                             5.000000
      * Repulsion:
        kExp                           1.500000    1.000000
        rExp                           1.000000
      * Coulomb:
        alpha                          2.000000
        third order                    shell-resolved
        anisotropic                    true
        a3                             3.000000
        a5                             4.000000
        cn-shift                       1.200000
        cn-exp                         4.000000
        max-rad                        5.000000


          ...................................................
          :                      SETUP                      :
          :.................................................:
          :  # basis functions                  80          :
          :  # atomic orbitals                  80          :
          :  # shells                           54          :
          :  # electrons                        80          :
          :  max. iterations                   250          :
          :  Hamiltonian                  GFN2-xTB          :
          :  restarted?                      false          :
          :  GBSA solvation                  false          :
          :  PC potential                    false          :
          :  electronic temp.          300.0000000     K    :
          :  accuracy                    1.0000000          :
          :  -> integral cutoff          0.2500000E+02      :
          :  -> integral neglect         0.1000000E-07      :
          :  -> SCF convergence          0.1000000E-05 Eh   :
          :  -> wf. convergence          0.1000000E-03 e    :
          :  Broyden damping             0.4000000          :
          ...................................................

 iter      E             dE          RMSdq      gap      omega  full diag
   1    -42.6416023 -0.426416E+02  0.246E+00   12.62       0.0  T
   2    -42.7487355 -0.107133E+00  0.131E+00   12.37       1.0  T
   3    -42.7500295 -0.129407E-02  0.700E-01   12.33       1.0  T
   4    -42.7503455 -0.315967E-03  0.858E-02   12.35       1.0  T
   5    -42.7503612 -0.157237E-04  0.459E-02   12.35       1.0  T
   6    -42.7503640 -0.274211E-05  0.417E-03   12.35       3.7  T
   7    -42.7503641 -0.112151E-06  0.152E-03   12.35      10.3  T
   8    -42.7503641 -0.132591E-07  0.312E-04   12.35      50.0  T
   9    -42.7503641 -0.476852E-09  0.135E-04   12.35     116.0  T

   *** convergence criteria satisfied after 9 iterations ***

         #    Occupation            Energy/Eh            Energy/eV
      -------------------------------------------------------------
         1        2.0000           -0.6226957             -16.9444
       ...           ...                  ...                  ...
        34        2.0000           -0.4226118             -11.4999
        35        2.0000           -0.4200673             -11.4306
        36        2.0000           -0.4195175             -11.4157
        37        2.0000           -0.4162772             -11.3275
        38        2.0000           -0.4155570             -11.3079
        39        2.0000           -0.4069998             -11.0750
        40        2.0000           -0.4061432             -11.0517 (HOMO)
        41                          0.0478055               1.3009 (LUMO)
        42                          0.0681407               1.8542
        43                          0.0754181               2.0522
        44                          0.0839322               2.2839
        45                          0.0922999               2.5116
       ...                                ...                  ...
        80                          0.3250204               8.8443
      -------------------------------------------------------------
                  HL-Gap            0.4539487 Eh           12.3526 eV
             Fermi-level           -0.1791688 Eh           -4.8754 eV

 SCC (total)                   0 d,  0 h,  0 min,  0.039 sec
 SCC setup                      ...        0 min,  0.000 sec (  0.688%)
 Dispersion                     ...        0 min,  0.001 sec (  1.525%)
 classical contributions        ...        0 min,  0.000 sec (  0.499%)
 integral evaluation            ...        0 min,  0.003 sec (  7.638%)
 iterations                     ...        0 min,  0.024 sec ( 62.004%)
 molecular gradient             ...        0 min,  0.010 sec ( 26.973%)
 printout                       ...        0 min,  0.000 sec (  0.586%)

         :::::::::::::::::::::::::::::::::::::::::::::::::::::
         ::                     SUMMARY                     ::
         :::::::::::::::::::::::::::::::::::::::::::::::::::::
         :: total energy             -42.137870580862 Eh    ::
         :: gradient norm              0.032504296846 Eh/a0 ::
         :: HOMO-LUMO gap             12.352572252069 eV    ::
         ::.................................................::
         :: SCC energy               -42.750364093805 Eh    ::
         :: -> isotropic ES            0.006551753994 Eh    ::
         :: -> anisotropic ES          0.014211500271 Eh    ::
         :: -> anisotropic XC          0.024966455499 Eh    ::
         :: -> dispersion             -0.029257788392 Eh    ::
         :: repulsion energy           0.612117017429 Eh    ::
         :: add. restraining           0.000000000000 Eh    ::
         :: total charge               0.000000000000 e     ::
         :::::::::::::::::::::::::::::::::::::::::::::::::::::

      ----------------------------------------------------------- 
     |                   =====================                   |
     |                        A N C O P T                        |
     |                   =====================                   |
     |               Approximate Normal Coordinate               |
     |                Rational Function Optimizer                |
      ----------------------------------------------------------- 

          ...................................................
          :                      SETUP                      :
          :.................................................:
          :   optimization level            normal          :
          :   max. optcycles                   200          :
          :   ANC micro-cycles                  20          :
          :   degrees of freedom               117          :
          :.................................................:
          :   RF solver                   davidson          :
          :   write xtbopt.log                true          :
          :   linear?                        false          :
          :   energy convergence         0.5000000E-05 Eh   :
          :   grad. convergence          0.1000000E-02 Eh/α :
          :   maxmium RF displ.          2.0000000          :
          :   Hlow (freq-cutoff)         0.2000000E-01      :
          :   Hmax (freq-cutoff)         5.0000000          :
          :   S6 in model hess.         70.0000000          :
          ...................................................

generating ANC from model Hessian ...
Using Lindh-Hessian (1995)
 Shifting diagonal of input Hessian by   1.965928364761216E-002
 Lowest  eigenvalues of input Hessian
    0.000000    0.000000    0.000000    0.000000    0.000000    0.000000
    0.020000    0.020701    0.021150    0.021881    0.022924    0.023080
    0.024520    0.025850    0.026622    0.026912    0.028404    0.029313
 Highest eigenvalues
    1.236333    1.250304    1.274574    1.285226    1.301735    1.326381
 

........................................................................
.............................. CYCLE    1 ..............................
........................................................................

 iter      E             dE          RMSdq      gap      omega  full diag
   1    -42.7503641 -0.427504E+02  0.257E-05   12.35       0.0  T
   2    -42.7503641 -0.393641E-11  0.142E-05   12.35    1103.4  T
   3    -42.7503641 -0.923706E-13  0.663E-06   12.35    2357.1  T
     SCC iter.                  ...        0 min,  0.008 sec
     gradient                   ...        0 min,  0.007 sec
 * total energy  :   -42.1378706 Eh     change       -0.2179235E-10 Eh
   gradient norm :     0.0325039 Eh/α   predicted     0.0000000E+00 (-100.00%)
   displ. norm   :     0.1905012 α      lambda       -0.3629876E-02
   maximum displ.:     0.0914765 α      in ANC's #53, #39, #51, ...

........................................................................
.............................. CYCLE    2 ..............................
........................................................................

 iter      E             dE          RMSdq      gap      omega  full diag
   1    -42.7628000 -0.427628E+02  0.136E-01   12.49       0.0  T
   2    -42.7628052 -0.518893E-05  0.783E-02   12.49       1.0  T
   3    -42.7628060 -0.814184E-06  0.369E-03   12.49       4.2  T
   4    -42.7628061 -0.540749E-07  0.116E-03   12.49      13.5  T
   5    -42.7628061 -0.226492E-08  0.603E-04   12.49      25.9  T
   6    -42.7628061 -0.471893E-09  0.707E-05   12.49     221.0  T
     SCC iter.                  ...        0 min,  0.008 sec
     gradient                   ...        0 min,  0.005 sec
 * total energy  :   -42.1402783 Eh     change       -0.2407677E-02 Eh
   gradient norm :     0.0143003 Eh/α   predicted    -0.1880812E-02 ( -21.88%)
   displ. norm   :     0.1027718 α      lambda       -0.6874512E-03
   maximum displ.:     0.0404927 α      in ANC's #53, #14, #39, ...

........................................................................
.............................. CYCLE    3 ..............................
........................................................................

 iter      E             dE          RMSdq      gap      omega  full diag
   1    -42.7709673 -0.427710E+02  0.646E-02   12.57       0.0  T
   2    -42.7709705 -0.318424E-05  0.366E-02   12.57       1.0  T
   3    -42.7709706 -0.158690E-06  0.364E-03   12.57       4.3  T
   4    -42.7709707 -0.275123E-07  0.629E-04   12.57      24.8  T
   5    -42.7709707 -0.170269E-08  0.359E-04   12.57      43.5  T
     SCC iter.                  ...        0 min,  0.007 sec
     gradient                   ...        0 min,  0.005 sec
 * total energy  :   -42.1406504 Eh     change       -0.3721706E-03 Eh
   gradient norm :     0.0024738 Eh/α   predicted    -0.3473646E-03 (  -6.67%)
   displ. norm   :     0.0312948 α      lambda       -0.2933467E-04
   maximum displ.:     0.0195106 α      in ANC's #14, #12, #3, ...

........................................................................
.............................. CYCLE    4 ..............................
........................................................................

 iter      E             dE          RMSdq      gap      omega  full diag
   1    -42.7720414 -0.427720E+02  0.696E-03   12.58       0.0  T
   2    -42.7720415 -0.101704E-06  0.398E-03   12.58       3.9  T
   3    -42.7720415 -0.341747E-08  0.785E-04   12.58      19.9  T
   4    -42.7720415 -0.931898E-09  0.151E-04   12.58     103.1  T
     SCC iter.                  ...        0 min,  0.006 sec
     gradient                   ...        0 min,  0.005 sec
 * total energy  :   -42.1406750 Eh     change       -0.2457682E-04 Eh
   gradient norm :     0.0008677 Eh/α   predicted    -0.1562013E-04 ( -36.44%)
   displ. norm   :     0.1091150 α      lambda       -0.4550610E-04
   maximum displ.:     0.0624143 α      in ANC's #14, #12, #3, ...

........................................................................
.............................. CYCLE    5 ..............................
........................................................................

 iter      E             dE          RMSdq      gap      omega  full diag
   1    -42.7731167 -0.427731E+02  0.177E-02   12.61       0.0  T
   2    -42.7731170 -0.273940E-06  0.104E-02   12.61       1.5  T
   3    -42.7731170 -0.266724E-07  0.118E-03   12.61      13.2  T
   4    -42.7731170 -0.825209E-08  0.428E-04   12.61      36.5  T
   5    -42.7731170 -0.954692E-09  0.145E-04   12.61     107.8  T
     SCC iter.                  ...        0 min,  0.007 sec
     gradient                   ...        0 min,  0.005 sec
 * total energy  :   -42.1407097 Eh     change       -0.3469139E-04 Eh
   gradient norm :     0.0033196 Eh/α   predicted    -0.2287379E-04 ( -34.06%)
   displ. norm   :     0.0311679 α      lambda       -0.1609272E-04
   maximum displ.:     0.0146700 α      in ANC's #12, #3, #2, ...

........................................................................
.............................. CYCLE    6 ..............................
........................................................................

 iter      E             dE          RMSdq      gap      omega  full diag
   1    -42.7726109 -0.427726E+02  0.459E-03   12.60       0.0  T
   2    -42.7726109 -0.305287E-07  0.268E-03   12.60       5.8  T
   3    -42.7726109 -0.101136E-08  0.398E-04   12.60      39.2  T
   4    -42.7726109 -0.284764E-09  0.806E-05   12.60     193.8  T
     SCC iter.                  ...        0 min,  0.006 sec
     gradient                   ...        0 min,  0.005 sec
 * total energy  :   -42.1407240 Eh     change       -0.1433998E-04 Eh
   gradient norm :     0.0022486 Eh/α   predicted    -0.8064485E-05 ( -43.76%)
   displ. norm   :     0.1379433 α      lambda       -0.5545645E-04
   maximum displ.:     0.0627321 α      in ANC's #3, #12, #2, ...

........................................................................
.............................. CYCLE    7 ..............................
........................................................................

 iter      E             dE          RMSdq      gap      omega  full diag
   1    -42.7709814 -0.427710E+02  0.190E-02   12.60       0.0  T
   2    -42.7709817 -0.328764E-06  0.112E-02   12.60       1.4  T
   3    -42.7709817 -0.145723E-07  0.116E-03   12.60      13.4  T
   4    -42.7709817 -0.340181E-08  0.303E-04   12.60      51.5  T
   5    -42.7709817 -0.404420E-09  0.135E-04   12.60     115.5  T
     SCC iter.                  ...        0 min,  0.007 sec
     gradient                   ...        0 min,  0.005 sec
 * total energy  :   -42.1407566 Eh     change       -0.3253769E-04 Eh
   gradient norm :     0.0016389 Eh/α   predicted    -0.2834789E-04 ( -12.88%)
   displ. norm   :     0.0796108 α      lambda       -0.1136049E-04
   maximum displ.:     0.0393683 α      in ANC's #3, #2, #12, ...

........................................................................
.............................. CYCLE    8 ..............................
........................................................................

 iter      E             dE          RMSdq      gap      omega  full diag
   1    -42.7708822 -0.427709E+02  0.102E-02   12.59       0.0  T
   2    -42.7708822 -0.120864E-07  0.609E-03   12.59       2.6  T
   3    -42.7708822 -0.345221E-08  0.272E-04   12.59      57.3  T
   4    -42.7708822 -0.334353E-09  0.140E-04   12.59     111.7  T
     SCC iter.                  ...        0 min,  0.006 sec
     gradient                   ...        0 min,  0.005 sec
 * total energy  :   -42.1407700 Eh     change       -0.1345833E-04 Eh
   gradient norm :     0.0020319 Eh/α   predicted    -0.5706492E-05 ( -57.60%)
   displ. norm   :     0.0974998 α      lambda       -0.2504290E-04
   maximum displ.:     0.0506626 α      in ANC's #3, #2, #13, ...

........................................................................
.............................. CYCLE    9 ..............................
........................................................................

 iter      E             dE          RMSdq      gap      omega  full diag
   1    -42.7713552 -0.427714E+02  0.124E-02   12.58       0.0  T
   2    -42.7713553 -0.429719E-07  0.740E-03   12.58       2.1  T
   3    -42.7713553 -0.452572E-08  0.366E-04   12.58      42.7  T
   4    -42.7713553 -0.735483E-09  0.162E-04   12.58      96.6  T
     SCC iter.                  ...        0 min,  0.006 sec
     gradient                   ...        0 min,  0.005 sec
 * total energy  :   -42.1407893 Eh     change       -0.1925292E-04 Eh
   gradient norm :     0.0010889 Eh/α   predicted    -0.1264835E-04 ( -34.30%)
   displ. norm   :     0.1858401 α      lambda       -0.2064983E-04
   maximum displ.:     0.1006221 α      in ANC's #3, #2, #13, ...

........................................................................
.............................. CYCLE   10 ..............................
........................................................................

 iter      E             dE          RMSdq      gap      omega  full diag
   1    -42.7717405 -0.427717E+02  0.233E-02   12.57       0.0  T
   2    -42.7717406 -0.104816E-06  0.139E-02   12.57       1.1  T
   3    -42.7717407 -0.145199E-07  0.636E-04   12.57      24.6  T
   4    -42.7717407 -0.291908E-08  0.295E-04   12.57      53.0  T
     SCC iter.                  ...        0 min,  0.006 sec
     gradient                   ...        0 min,  0.005 sec
 * total energy  :   -42.1408022 Eh     change       -0.1289150E-04 Eh
   gradient norm :     0.0010378 Eh/α   predicted    -0.1048481E-04 ( -18.67%)
   displ. norm   :     0.0256187 α      lambda       -0.4634154E-05
   maximum displ.:     0.0133445 α      in ANC's #12, #13, #17, ...

........................................................................
.............................. CYCLE   11 ..............................
........................................................................

 iter      E             dE          RMSdq      gap      omega  full diag
   1    -42.7720416 -0.427720E+02  0.448E-03   12.58       0.0  T
   2    -42.7720416 -0.168148E-07  0.264E-03   12.58       5.9  T
   3    -42.7720416 -0.116765E-08  0.317E-04   12.58      49.2  T
   4    -42.7720416 -0.534563E-09  0.987E-05   12.58     158.3  T
     SCC iter.                  ...        0 min,  0.006 sec
     gradient                   ...        0 min,  0.005 sec
 * total energy  :   -42.1408075 Eh     change       -0.5278558E-05 Eh
   gradient norm :     0.0006881 Eh/α   predicted    -0.2319067E-05 ( -56.07%)
   displ. norm   :     0.0499315 α      lambda       -0.8355279E-05
   maximum displ.:     0.0261318 α      in ANC's #3, #1, #8, ...

........................................................................
.............................. CYCLE   12 ..............................
........................................................................

 iter      E             dE          RMSdq      gap      omega  full diag
   1    -42.7718765 -0.427719E+02  0.765E-03   12.60       0.0  T
   2    -42.7718766 -0.246516E-07  0.453E-03   12.60       3.4  T
   3    -42.7718766 -0.291697E-08  0.289E-04   12.60      54.0  T
   4    -42.7718766 -0.579220E-09  0.130E-04   12.60     120.6  T
     SCC iter.                  ...        0 min,  0.007 sec
     gradient                   ...        0 min,  0.005 sec
 * total energy  :   -42.1408156 Eh     change       -0.8108948E-05 Eh
   gradient norm :     0.0006141 Eh/α   predicted    -0.4183506E-05 ( -48.41%)
   displ. norm   :     0.0715609 α      lambda       -0.5458268E-05
   maximum displ.:     0.0462672 α      in ANC's #3, #1, #2, ...

........................................................................
.............................. CYCLE   13 ..............................
........................................................................

 iter      E             dE          RMSdq      gap      omega  full diag
   1    -42.7720128 -0.427720E+02  0.844E-03   12.61       0.0  T
   2    -42.7720128 -0.756650E-08  0.499E-03   12.61       3.1  T
   3    -42.7720128 -0.196589E-08  0.193E-04   12.61      81.0  T
   4    -42.7720128 -0.196145E-09  0.101E-04   12.61     154.1  T
     SCC iter.                  ...        0 min,  0.006 sec
     gradient                   ...        0 min,  0.005 sec
 * total energy  :   -42.1408220 Eh     change       -0.6417007E-05 Eh
   gradient norm :     0.0008092 Eh/α   predicted    -0.2736897E-05 ( -57.35%)
   displ. norm   :     0.1545815 α      lambda       -0.9919250E-05
   maximum displ.:     0.1044441 α      in ANC's #3, #1, #2, ...

........................................................................
.............................. CYCLE   14 ..............................
........................................................................

 iter      E             dE          RMSdq      gap      omega  full diag
   1    -42.7719240 -0.427719E+02  0.169E-02   12.62       0.0  T
   2    -42.7719240 -0.185564E-07  0.998E-03   12.62       1.6  T
   3    -42.7719240 -0.729591E-08  0.339E-04   12.62      46.1  T
   4    -42.7719240 -0.300183E-09  0.170E-04   12.62      91.9  T
     SCC iter.                  ...        0 min,  0.006 sec
     gradient                   ...        0 min,  0.005 sec
 * total energy  :   -42.1408325 Eh     change       -0.1054711E-04 Eh
   gradient norm :     0.0007248 Eh/α   predicted    -0.5013788E-05 ( -52.46%)
   displ. norm   :     0.1421494 α      lambda       -0.7647065E-05
   maximum displ.:     0.0977282 α      in ANC's #3, #1, #2, ...

........................................................................
.............................. CYCLE   15 ..............................
........................................................................

 iter      E             dE          RMSdq      gap      omega  full diag
   1    -42.7718796 -0.427719E+02  0.146E-02   12.61       0.0  T
   2    -42.7718796 -0.187641E-07  0.864E-03   12.61       1.8  T
   3    -42.7718797 -0.525988E-08  0.305E-04   12.61      51.1  T
   4    -42.7718797 -0.441105E-09  0.158E-04   12.61      98.9  T
     SCC iter.                  ...        0 min,  0.006 sec
     gradient                   ...        0 min,  0.005 sec
 * total energy  :   -42.1408408 Eh     change       -0.8249713E-05 Eh
   gradient norm :     0.0004511 Eh/α   predicted    -0.3859900E-05 ( -53.21%)
   displ. norm   :     0.1287283 α      lambda       -0.6558728E-05
   maximum displ.:     0.0887035 α      in ANC's #3, #1, #2, ...

........................................................................
.............................. CYCLE   16 ..............................
........................................................................

 iter      E             dE          RMSdq      gap      omega  full diag
   1    -42.7718665 -0.427719E+02  0.125E-02   12.60       0.0  T
   2    -42.7718665 -0.166298E-07  0.737E-03   12.60       2.1  T
   3    -42.7718666 -0.423755E-08  0.279E-04   12.60      56.0  T
   4    -42.7718666 -0.374804E-09  0.136E-04   12.60     115.2  T
     SCC iter.                  ...        0 min,  0.006 sec
     gradient                   ...        0 min,  0.005 sec
 * total energy  :   -42.1408478 Eh     change       -0.7029563E-05 Eh
   gradient norm :     0.0003985 Eh/α   predicted    -0.3307844E-05 ( -52.94%)
   displ. norm   :     0.1090643 α      lambda       -0.5898612E-05
   maximum displ.:     0.0720849 α      in ANC's #3, #1, #2, ...

........................................................................
.............................. CYCLE   17 ..............................
........................................................................

 iter      E             dE          RMSdq      gap      omega  full diag
   1    -42.7718610 -0.427719E+02  0.977E-03   12.59       0.0  T
   2    -42.7718610 -0.143373E-07  0.578E-03   12.59       2.7  T
   3    -42.7718610 -0.253570E-08  0.271E-04   12.59      57.7  T
   4    -42.7718610 -0.727610E-09  0.127E-04   12.59     122.5  T
     SCC iter.                  ...        0 min,  0.006 sec
     gradient                   ...        0 min,  0.006 sec
 * total energy  :   -42.1408542 Eh     change       -0.6392988E-05 Eh
   gradient norm :     0.0005482 Eh/α   predicted    -0.2967524E-05 ( -53.58%)
   displ. norm   :     0.1154358 α      lambda       -0.6311136E-05
   maximum displ.:     0.0709798 α      in ANC's #3, #1, #4, ...

........................................................................
.............................. CYCLE   18 ..............................
........................................................................

 iter      E             dE          RMSdq      gap      omega  full diag
   1    -42.7717924 -0.427718E+02  0.101E-02   12.58       0.0  T
   2    -42.7717924 -0.128530E-07  0.600E-03   12.58       2.6  T
   3    -42.7717924 -0.294683E-08  0.272E-04   12.58      57.4  T
   4    -42.7717924 -0.532452E-09  0.133E-04   12.58     117.3  T
     SCC iter.                  ...        0 min,  0.009 sec
     gradient                   ...        0 min,  0.045 sec
 * total energy  :   -42.1408609 Eh     change       -0.6695486E-05 Eh
   gradient norm :     0.0005459 Eh/α   predicted    -0.3176612E-05 ( -52.56%)
   displ. norm   :     0.1008980 α      lambda       -0.5654529E-05
   maximum displ.:     0.0566086 α      in ANC's #1, #3, #4, ...

........................................................................
.............................. CYCLE   19 ..............................
........................................................................

 iter      E             dE          RMSdq      gap      omega  full diag
   1    -42.7717335 -0.427717E+02  0.920E-03   12.58       0.0  T
   2    -42.7717335 -0.980912E-08  0.546E-03   12.58       2.9  T
   3    -42.7717335 -0.249086E-08  0.255E-04   12.58      61.2  T
   4    -42.7717335 -0.511747E-09  0.129E-04   12.58     120.7  T
     SCC iter.                  ...        0 min,  0.011 sec
     gradient                   ...        0 min,  0.006 sec
 * total energy  :   -42.1408667 Eh     change       -0.5851710E-05 Eh
   gradient norm :     0.0003902 Eh/α   predicted    -0.2842670E-05 ( -51.42%)
   displ. norm   :     0.0781234 α      lambda       -0.4012032E-05
   maximum displ.:     0.0460075 α      in ANC's #1, #3, #4, ...

........................................................................
.............................. CYCLE   20 ..............................
........................................................................

 iter      E             dE          RMSdq      gap      omega  full diag
   1    -42.7717392 -0.427717E+02  0.754E-03   12.59       0.0  T
   2    -42.7717392 -0.693189E-08  0.447E-03   12.59       3.5  T
   3    -42.7717392 -0.170127E-08  0.206E-04   12.59      75.8  T
   4    -42.7717392 -0.396518E-09  0.107E-04   12.59     146.5  T
     SCC iter.                  ...        0 min,  0.006 sec
     gradient                   ...        0 min,  0.005 sec
 * total energy  :   -42.1408709 Eh     change       -0.4147109E-05 Eh
   gradient norm :     0.0002903 Eh/α   predicted    -0.2015729E-05 ( -51.39%)
   displ. norm   :     0.0552573 α      lambda       -0.2746093E-05
   maximum displ.:     0.0346009 α      in ANC's #1, #4, #3, ...

   *** GEOMETRY OPTIMIZATION CONVERGED AFTER 20 ITERATIONS ***

------------------------------------------------------------------------
 total energy gain   :        -0.0030003 Eh       -1.8827 kcal/mol
 total RMSD          :         0.2205872 a0        0.1167 Å
 total power (kW/mol):        -0.3938663 (step)  -14.4714 (real)
------------------------------------------------------------------------

 ANCopt (total)                0 d,  0 h,  0 min,  0.544 sec
 optimizer setup                ...        0 min,  0.001 sec (  0.100%)
 model hessian                  ...        0 min,  0.030 sec (  5.586%)
 ANC generation                 ...        0 min,  0.003 sec (  0.523%)
 coordinate transformation      ...        0 min,  0.001 sec (  0.124%)
 single point calculation       ...        0 min,  0.342 sec ( 62.894%)
 optimization log               ...        0 min,  0.152 sec ( 27.898%)
 hessian update                 ...        0 min,  0.010 sec (  1.757%)
 rational function              ...        0 min,  0.003 sec (  0.634%)

================
 final structure:
================
41
 xtb: 6.6.1 (8d0f1dd)
C            5.31574787727144       -1.33136001253902        1.49434401164877
C            3.84708071704539       -1.24253819846716        1.09859167623115
C            3.51262131628785        0.09695567092002        0.44656725564088
C            2.03565277964128        0.20099222352372        0.07432234076681
C            1.69830794374743        1.55092241850219       -0.55631187488283
C            0.20491571505873        1.72666731442186       -0.83641198033064
C           -0.29295313106611        0.85703431833866       -1.98885673949763
C           -1.77861866496186        1.05223601695403       -2.29971399275879
C           -2.72712600939751        0.66879868440736       -1.16188936891854
C           -2.63272148922763       -0.80477584031787       -0.77280184071725
C           -3.67042160979037       -1.22030770053764        0.27114808900558
C           -3.51189907276426       -0.54453025934389        1.63475558765491
C           -2.18027122103072       -0.85284666843281        2.30991332310489
H            5.53151240659928       -2.29221373913610        1.95600526731969
H            5.56723894893614       -0.54566395355930        2.20361695999225
H            5.95394619281518       -1.21915175191234        0.62044518354722
H            3.60866707209788       -2.05163755131920        0.40418999705289
H            3.22422657333926       -1.37558283020833        1.98642127301726
H            4.12173990191239        0.22356721963394       -0.45171433794480
H            3.76942478953147        0.90571192742830        1.13528620632361
H            1.43039190371667        0.06372125982317        0.97433773034583
H            1.78803187414597       -0.60538689488454       -0.61839685206387
H            2.25953028756441        1.66794086928842       -1.48641154499942
H            2.02237487839634        2.34209026172108        0.12489811422564
H            0.01041736030972        2.77429817595385       -1.08034423589018
H           -0.34860857617423        1.49150791397073        0.07408208428590
H           -0.10684934605778       -0.19378186133390       -1.76777026368663
H            0.27986246128010        1.10702574367119       -2.88591270374351
H           -1.95014690651334        2.10113819823062       -2.55607351011620
H           -2.02763624618437        0.45391407275589       -3.18023013044701
H           -3.75054985455013        0.88230627457951       -1.48240335946030
H           -2.52115862739031        1.29612054696331       -0.29474967226193
H           -2.78345017683401       -1.41318583703673       -1.66869509498362
H           -1.63610187979369       -1.02542614606190       -0.39178691521193
H           -3.60638854878469       -2.30272833192101        0.41099288786376
H           -4.66908354346178       -0.99725418806615       -0.11356911466113
H           -4.32239705673679       -0.89129506663525        2.28098716342124
H           -3.62391570083808        0.53567335926635        1.52727841305020
H           -1.35031485061667       -0.42276288389515        1.75519475131550
H           -2.16300518634910       -0.43921225945390        3.31599257649902
H           -2.02762530117387       -1.92803849529235        2.37842964026342
           -------------------------------------------------
          |                Final Singlepoint                |
           -------------------------------------------------

          ...................................................
          :                      SETUP                      :
          :.................................................:
          :  # basis functions                  80          :
          :  # atomic orbitals                  80          :
          :  # shells                           54          :
          :  # electrons                        80          :
          :  max. iterations                   250          :
          :  Hamiltonian                  GFN2-xTB          :
          :  restarted?                      false          :
          :  GBSA solvation                  false          :
          :  PC potential                    false          :
          :  electronic temp.          300.0000000     K    :
          :  accuracy                    1.0000000          :
          :  -> integral cutoff          0.2500000E+02      :
          :  -> integral neglect         0.1000000E-07      :
          :  -> SCF convergence          0.1000000E-05 Eh   :
          :  -> wf. convergence          0.1000000E-03 e    :
          :  Broyden damping             0.4000000          :
          ...................................................

 iter      E             dE          RMSdq      gap      omega  full diag
   1    -42.7717392 -0.427717E+02  0.234E-05   12.59       0.0  T
   2    -42.7717392 -0.156319E-11  0.135E-05   12.59    1156.9  T
   3    -42.7717392  0.284217E-13  0.474E-06   12.59    3296.0  T

   *** convergence criteria satisfied after 3 iterations ***

         #    Occupation            Energy/Eh            Energy/eV
      -------------------------------------------------------------
         1        2.0000           -0.6233636             -16.9626
       ...           ...                  ...                  ...
        34        2.0000           -0.4231866             -11.5155
        35        2.0000           -0.4201414             -11.4326
        36        2.0000           -0.4184127             -11.3856
        37        2.0000           -0.4166214             -11.3368
        38        2.0000           -0.4147630             -11.2863
        39        2.0000           -0.4080186             -11.1028
        40        2.0000           -0.4076140             -11.0917 (HOMO)
        41                          0.0551362               1.5003 (LUMO)
        42                          0.0751893               2.0460
        43                          0.0824813               2.2444
        44                          0.0947045               2.5770
        45                          0.1021773               2.7804
       ...                                ...                  ...
        80                          0.3320405               9.0353
      -------------------------------------------------------------
                  HL-Gap            0.4627503 Eh           12.5921 eV
             Fermi-level           -0.1762389 Eh           -4.7957 eV

 SCC (total)                   0 d,  0 h,  0 min,  0.012 sec
 SCC setup                      ...        0 min,  0.000 sec (  1.719%)
 Dispersion                     ...        0 min,  0.000 sec (  2.979%)
 classical contributions        ...        0 min,  0.000 sec (  0.317%)
 integral evaluation            ...        0 min,  0.001 sec ( 11.439%)
 iterations                     ...        0 min,  0.005 sec ( 38.769%)
 molecular gradient             ...        0 min,  0.005 sec ( 42.880%)
 printout                       ...        0 min,  0.000 sec (  1.625%)

         :::::::::::::::::::::::::::::::::::::::::::::::::::::
         ::                     SUMMARY                     ::
         :::::::::::::::::::::::::::::::::::::::::::::::::::::
         :: total energy             -42.140870895758 Eh    ::
         :: gradient norm              0.000290271155 Eh/a0 ::
         :: HOMO-LUMO gap             12.592075548253 eV    ::
         ::.................................................::
         :: SCC energy               -42.771739214526 Eh    ::
         :: -> isotropic ES            0.007020286853 Eh    ::
         :: -> anisotropic ES          0.013556112142 Eh    ::
         :: -> anisotropic XC          0.025247387295 Eh    ::
         :: -> dispersion             -0.028957327358 Eh    ::
         :: repulsion energy           0.630523278144 Eh    ::
         :: add. restraining           0.000000000000 Eh    ::
         :: total charge               0.000000000000 e     ::
         :::::::::::::::::::::::::::::::::::::::::::::::::::::

           ------------------------------------------------- 
          |                Numerical Hessian                |
           ------------------------------------------------- 
step length          :   0.00500
SCC accuracy         :   0.30000
Hessian scale factor :   1.00000
frozen atoms in %    :   0.00000    0
RMS gradient         :   0.00029
estimated CPU  time      0.44 min
estimated wall time      0.16 min

writing file <hessian>.

 projected vibrational frequencies (cm⁻¹)
eigval :       -0.00    -0.00    -0.00    -0.00     0.00     0.00
eigval :       10.01    22.47    30.18    39.82    51.60    68.27
eigval :      108.31   119.00   149.09   156.58   193.43   217.78
eigval :      233.02   237.53   263.42   271.52   303.52   335.11
eigval :      364.02   413.56   447.90   504.02   538.25   747.71
eigval :      767.70   776.59   793.92   819.15   842.27   859.76
eigval :      874.12   902.33   927.06   941.95   964.88   970.25
eigval :     1003.65  1014.25  1041.20  1048.22  1074.83  1082.86
eigval :     1088.81  1104.62  1115.21  1123.03  1140.65  1146.18
eigval :     1152.64  1159.14  1172.43  1190.64  1215.55  1235.62
eigval :     1253.31  1258.63  1266.06  1279.12  1286.17  1287.67
eigval :     1291.02  1294.14  1308.86  1321.59  1326.14  1352.77
eigval :     1359.01  1364.21  1367.93  1375.27  1375.80  1380.00
eigval :     1414.88  1416.45  1487.12  1489.95  1490.53  1493.36
eigval :     1494.05  1497.24  1499.11  1500.52  1501.22  1501.29
eigval :     1504.90  1505.72  1507.48  1508.05  1517.79  2952.37
eigval :     2953.93  2954.51  2955.61  2956.94  2958.27  2960.31
eigval :     2962.77  2962.85  2964.89  2971.70  2973.01  2973.76
eigval :     2975.79  2978.45  2980.47  2987.85  2989.32  2991.39
eigval :     3003.87  3005.87  3011.87  3029.44  3030.02  3031.76
eigval :     3032.08  3037.66  3042.97
           -------------------------------------------------
          |                Property Printout                |
           -------------------------------------------------

    * Orbital Energies and Occupations

         #    Occupation            Energy/Eh            Energy/eV
      -------------------------------------------------------------
         1        2.0000           -0.6233636             -16.9626
       ...           ...                  ...                  ...
        28        2.0000           -0.4502616             -12.2522
        29        2.0000           -0.4463652             -12.1462
        30        2.0000           -0.4377576             -11.9120
        31        2.0000           -0.4341636             -11.8142
        32        2.0000           -0.4328152             -11.7775
        33        2.0000           -0.4293919             -11.6843
        34        2.0000           -0.4231866             -11.5155
        35        2.0000           -0.4201414             -11.4326
        36        2.0000           -0.4184127             -11.3856
        37        2.0000           -0.4166214             -11.3368
        38        2.0000           -0.4147630             -11.2863
        39        2.0000           -0.4080186             -11.1028
        40        2.0000           -0.4076140             -11.0917 (HOMO)
        41                          0.0551362               1.5003 (LUMO)
        42                          0.0751893               2.0460
        43                          0.0824813               2.2444
        44                          0.0947045               2.5770
        45                          0.1021773               2.7804
        46                          0.1074070               2.9227
        47                          0.1141655               3.1066
        48                          0.1222940               3.3278
        49                          0.1246610               3.3922
        50                          0.1337933               3.6407
        51                          0.1378467               3.7510
       ...                                ...                  ...
        80                          0.3320405               9.0353
      -------------------------------------------------------------
                  HL-Gap            0.4627503 Eh           12.5921 eV
             Fermi-level           -0.1762389 Eh           -4.7957 eV

     #   Z          covCN         q      C6AA      α(0)
     1   6 C        3.752    -0.102    22.509     6.766
     2   6 C        3.801    -0.053    21.518     6.604
     3   6 C        3.803    -0.059    21.635     6.622
     4   6 C        3.802    -0.057    21.595     6.616
     5   6 C        3.802    -0.058    21.618     6.620
     6   6 C        3.801    -0.057    21.602     6.617
     7   6 C        3.801    -0.058    21.618     6.620
     8   6 C        3.801    -0.058    21.611     6.619
     9   6 C        3.801    -0.058    21.609     6.618
    10   6 C        3.801    -0.058    21.618     6.620
    11   6 C        3.801    -0.057    21.607     6.618
    12   6 C        3.799    -0.052    21.508     6.603
    13   6 C        3.751    -0.099    22.458     6.758
    14   1 H        0.925     0.032     2.553     2.499
    15   1 H        0.925     0.033     2.544     2.494
    16   1 H        0.925     0.033     2.544     2.494
    17   1 H        0.924     0.028     2.614     2.529
    18   1 H        0.924     0.029     2.608     2.525
    19   1 H        0.924     0.029     2.603     2.523
    20   1 H        0.924     0.029     2.603     2.523
    21   1 H        0.924     0.027     2.626     2.534
    22   1 H        0.924     0.029     2.597     2.520
    23   1 H        0.924     0.028     2.611     2.527
    24   1 H        0.924     0.028     2.621     2.532
    25   1 H        0.924     0.027     2.630     2.536
    26   1 H        0.924     0.033     2.544     2.494
    27   1 H        0.925     0.033     2.538     2.491
    28   1 H        0.924     0.026     2.640     2.541
    29   1 H        0.924     0.027     2.636     2.539
    30   1 H        0.924     0.027     2.632     2.537
    31   1 H        0.924     0.026     2.649     2.545
    32   1 H        0.925     0.034     2.532     2.488
    33   1 H        0.924     0.026     2.651     2.546
    34   1 H        0.925     0.038     2.477     2.461
    35   1 H        0.924     0.028     2.617     2.530
    36   1 H        0.924     0.026     2.649     2.545
    37   1 H        0.924     0.025     2.652     2.547
    38   1 H        0.924     0.030     2.589     2.516
    39   1 H        0.925     0.035     2.519     2.482
    40   1 H        0.925     0.029     2.602     2.522
    41   1 H        0.925     0.032     2.557     2.500

 Mol. C6AA /au·bohr⁶  :      11137.115205
 Mol. C8AA /au·bohr⁸  :     232345.324516
 Mol. α(0) /au        :        156.824460


Wiberg/Mayer (AO) data.
largest (>0.10) Wiberg bond orders for each atom

 ---------------------------------------------------------------------------
     #   Z sym  total        # sym  WBO       # sym  WBO       # sym  WBO
 ---------------------------------------------------------------------------
     1   6 C    3.997 --     2 C    1.019    16 H    0.988    15 H    0.988
                            14 H    0.988
     2   6 C    3.998 --     1 C    1.019     3 C    1.008    17 H    0.979
                            18 H    0.979
     3   6 C    3.997 --     2 C    1.008     4 C    1.007    19 H    0.978
                            20 H    0.977
     4   6 C    3.998 --     5 C    1.008     3 C    1.007    21 H    0.977
                            22 H    0.975
     5   6 C    3.997 --     4 C    1.008     6 C    1.006    23 H    0.977
                            24 H    0.977
     6   6 C    3.997 --     7 C    1.009     5 C    1.006    25 H    0.978
                            26 H    0.973
     7   6 C    3.998 --     6 C    1.009     8 C    1.007    28 H    0.977
                            27 H    0.972
     8   6 C    3.997 --     9 C    1.007     7 C    1.007    29 H    0.978
                            30 H    0.978
     9   6 C    3.998 --    10 C    1.009     8 C    1.007    31 H    0.977
                            32 H    0.972
    10   6 C    3.997 --     9 C    1.009    11 C    1.007    33 H    0.977
                            34 H    0.972
    11   6 C    3.998 --    12 C    1.008    10 C    1.007    35 H    0.978
                            36 H    0.978
    12   6 C    3.998 --    13 C    1.020    11 C    1.008    37 H    0.979
                            38 H    0.976
    13   6 C    3.997 --    12 C    1.020    41 H    0.988    40 H    0.988
                            39 H    0.985
    14   1 H    0.999 --     1 C    0.988
    15   1 H    0.999 --     1 C    0.988
    16   1 H    0.999 --     1 C    0.988
    17   1 H    0.999 --     2 C    0.979
    18   1 H    0.999 --     2 C    0.979
    19   1 H    0.999 --     3 C    0.978
    20   1 H    0.999 --     3 C    0.977
    21   1 H    0.999 --     4 C    0.977
    22   1 H    0.999 --     4 C    0.975
    23   1 H    0.999 --     5 C    0.977
    24   1 H    0.999 --     5 C    0.977
    25   1 H    0.999 --     6 C    0.978
    26   1 H    0.999 --     6 C    0.973
    27   1 H    0.999 --     7 C    0.972
    28   1 H    0.999 --     7 C    0.977
    29   1 H    0.999 --     8 C    0.978
    30   1 H    0.999 --     8 C    0.978
    31   1 H    0.999 --     9 C    0.977
    32   1 H    0.999 --     9 C    0.972
    33   1 H    0.999 --    10 C    0.977
    34   1 H    0.999 --    10 C    0.972
    35   1 H    0.999 --    11 C    0.978
    36   1 H    0.999 --    11 C    0.978
    37   1 H    0.999 --    12 C    0.979
    38   1 H    0.999 --    12 C    0.976
    39   1 H    0.999 --    13 C    0.985
    40   1 H    0.999 --    13 C    0.988
    41   1 H    0.999 --    13 C    0.988
 ---------------------------------------------------------------------------

Topologies differ in total number of bonds
Writing topology from bond orders to xtbtopo.mol

molecular dipole:
                 x           y           z       tot (Debye)
 q only:        0.019      -0.008       0.016
   full:        0.018      -0.007       0.010       0.055
molecular quadrupole (traceless):
                xx          xy          yy          xz          yz          zz
 q only:        0.034      -0.216       0.145       0.087       0.054      -0.179
  q+dip:       -1.571       0.280       0.835      -0.815       0.719       0.736
   full:       -0.723       0.083       0.411      -0.381       0.353       0.311

           -------------------------------------------------
          |                Geometry Summary                 |
           -------------------------------------------------

      molecular mass/u    :      184.3619077
   center of mass at/Å    :        0.0029467       0.0000846      -0.0013231
  moments of inertia/u·Å² :        0.5732423E+03   0.1727968E+04   0.2114961E+04
rotational constants/cm⁻¹ :        0.2940752E-01   0.9755755E-02   0.7970659E-02

 * 40 selected distances

     #   Z          #   Z                                           value/Å
     1   6 C        2   6 C                                       1.5236446
     2   6 C        3   6 C                                       1.5268409
     3   6 C        4   6 C                                       1.5267044
     4   6 C        5   6 C                                       1.5276822
     5   6 C        6   6 C                                       1.5295630
     6   6 C        7   6 C                                       1.5271753
     7   6 C        8   6 C                                       1.5303393 (max)
     8   6 C        9   6 C                                       1.5301424
     9   6 C       10   6 C                                       1.5269982
    10   6 C       11   6 C                                       1.5294836
    11   6 C       12   6 C                                       1.5301080
    12   6 C       13   6 C                                       1.5245098
     1   6 C       14   1 H                                       1.0876238
     1   6 C       15   1 H                                       1.0879496
     1   6 C       16   1 H                                       1.0879279
     2   6 C       17   1 H                                       1.0925551
     2   6 C       18   1 H                                       1.0926526
     3   6 C       19   1 H                                       1.0926875
     3   6 C       20   1 H                                       1.0928718
     4   6 C       21   1 H                                       1.0932575
     4   6 C       22   1 H                                       1.0915235
     5   6 C       23   1 H                                       1.0925884
     5   6 C       24   1 H                                       1.0931666
     6   6 C       25   1 H                                       1.0930980
     6   6 C       26   1 H                                       1.0911869
     7   6 C       27   1 H                                       1.0898297
     7   6 C       28   1 H                                       1.0933083
     8   6 C       29   1 H                                       1.0933152
     8   6 C       30   1 H                                       1.0933013
     9   6 C       31   1 H                                       1.0934858
     9   6 C       32   1 H                                       1.0899022
    10   6 C       33   1 H                                       1.0933923
    10   6 C       34   1 H                                       1.0895457
    11   6 C       35   1 H                                       1.0932939
    11   6 C       36   1 H                                       1.0931999
    12   6 C       37   1 H                                       1.0930546
    12   6 C       38   1 H                                       1.0913016
    13   6 C       39   1 H                                       1.0869740 (min)
    13   6 C       40   1 H                                       1.0879279
    13   6 C       41   1 H                                       1.0881328

 * 2 distinct bonds (by element types)

   Z      Z             #   av. dist./Å        max./Å        min./Å
   1 H    6 C          28     1.0913948     1.0934858     1.0869740
   6 C    6 C          12     1.5277660     1.5303393     1.5236446

           -------------------------------------------------
          |               Frequency Printout                |
           -------------------------------------------------
 projected vibrational frequencies (cm⁻¹)
eigval :       -0.00    -0.00    -0.00    -0.00     0.00     0.00
eigval :       10.01    22.47    30.18    39.82    51.60    68.27
eigval :      108.31   119.00   149.09   156.58   193.43   217.78
eigval :      233.02   237.53   263.42   271.52   303.52   335.11
eigval :      364.02   413.56   447.90   504.02   538.25   747.71
eigval :      767.70   776.59   793.92   819.15   842.27   859.76
eigval :      874.12   902.33   927.06   941.95   964.88   970.25
eigval :     1003.65  1014.25  1041.20  1048.22  1074.83  1082.86
eigval :     1088.81  1104.62  1115.21  1123.03  1140.65  1146.18
eigval :     1152.64  1159.14  1172.43  1190.64  1215.55  1235.62
eigval :     1253.31  1258.63  1266.06  1279.12  1286.17  1287.67
eigval :     1291.02  1294.14  1308.86  1321.59  1326.14  1352.77
eigval :     1359.01  1364.21  1367.93  1375.27  1375.80  1380.00
eigval :     1414.88  1416.45  1487.12  1489.95  1490.53  1493.36
eigval :     1494.05  1497.24  1499.11  1500.52  1501.22  1501.29
eigval :     1504.90  1505.72  1507.48  1508.05  1517.79  2952.37
eigval :     2953.93  2954.51  2955.61  2956.94  2958.27  2960.31
eigval :     2962.77  2962.85  2964.89  2971.70  2973.01  2973.76
eigval :     2975.79  2978.45  2980.47  2987.85  2989.32  2991.39
eigval :     3003.87  3005.87  3011.87  3029.44  3030.02  3031.76
eigval :     3032.08  3037.66  3042.97
 reduced masses (amu)
   1:  9.88   2: 10.06   3: 10.26   4: 10.16   5:  9.89   6: 10.15   7:  9.46   8:  8.55
   9:  7.33  10:  7.93  11:  8.20  12:  8.46  13:  7.92  14:  6.81  15:  4.68  16:  8.39
  17:  7.30  18:  8.04  19:  2.61  20:  7.16  21:  6.48  22:  6.37  23:  6.78  24:  8.20
  25:  8.24  26:  8.29  27:  8.39  28:  8.26  29:  8.21  30:  2.68  31:  2.12  32:  2.55
  33:  2.45  34:  3.58  35:  5.73  36:  4.24  37:  4.46  38:  6.86  39:  5.81  40:  6.16
  41:  5.96  42:  5.44  43:  4.45  44:  6.48  45:  4.52  46:  6.46  47:  6.96  48:  7.78
  49:  4.59  50:  6.99  51:  7.50  52:  7.16  53:  8.08  54:  7.65  55:  7.35  56:  7.79
  57:  4.95  58:  5.83  59:  5.27  60:  4.18  61:  3.61  62:  3.49  63:  3.02  64:  2.43
  65:  2.30  66:  2.31  67:  2.34  68:  2.25  69:  3.43  70:  3.43  71:  3.58  72:  4.41
  73:  4.64  74:  4.73  75:  4.65  76:  5.26  77:  5.04  78:  5.56  79:  3.23  80:  3.19
  81:  1.87  82:  1.88  83:  1.93  84:  1.94  85:  1.91  86:  1.89  87:  1.90  88:  1.90
  89:  1.94  90:  1.72  91:  1.53  92:  1.87  93:  1.74  94:  1.65  95:  1.66  96:  1.87
  97:  1.93  98:  1.89  99:  1.91 100:  1.87 101:  1.87 102:  1.72 103:  1.89 104:  1.83
 105:  1.80 106:  1.83 107:  1.52 108:  1.52 109:  1.57 110:  1.50 111:  1.67 112:  1.65
 113:  1.59 114:  1.62 115:  1.65 116:  1.70 117:  1.66 118:  1.93 119:  1.96 120:  1.78
 121:  1.93 122:  1.26 123:  1.44
 IR intensities (km·mol⁻¹)
   1:  0.00   2:  0.00   3:  0.00   4:  0.00   5:  0.00   6:  0.00   7:  0.00   8:  0.00
   9:  0.00  10:  0.00  11:  0.00  12:  0.01  13:  0.02  14:  0.00  15:  0.06  16:  0.06
  17:  0.12  18:  0.02  19:  0.00  20:  0.05  21:  0.19  22:  0.02  23:  0.87  24:  0.18
  25:  0.32  26:  0.25  27:  0.38  28:  0.87  29:  0.38  30:  5.07  31: 18.05  32: 11.84
  33:  4.38  34:  4.07  35:  0.51  36:  1.92  37:  0.48  38:  0.47  39:  1.16  40:  3.49
  41:  0.71  42:  0.76  43:  0.30  44:  2.29  45:  0.24  46:  1.59  47:  2.28  48:  0.90
  49:  0.61  50:  0.17  51:  0.02  52:  2.22  53:  0.31  54:  0.23  55:  0.59  56:  0.20
  57:  0.40  58:  0.65  59:  0.00  60:  0.38  61:  0.18  62:  0.50  63:  0.69  64:  0.36
  65:  0.43  66:  0.14  67:  0.05  68:  0.02  69:  0.51  70:  0.44  71:  0.51  72:  2.29
  73:  6.16  74:  1.69  75:  0.88  76:  0.04  77:  0.22  78:  0.04  79:  1.71  80:  1.06
  81:  0.27  82:  0.47  83:  0.22  84:  0.08  85:  0.48  86:  0.14  87:  0.94  88:  0.09
  89:  0.42  90:  0.37  91:  2.27  92:  0.24  93:  1.37  94:  1.18  95:  0.86  96:  6.35
  97: 15.14  98:  4.93  99:  0.82 100: 11.82 101: 54.43 102: 13.32 103: 13.86 104: 37.83
 105: 20.11 106: 76.43 107: 31.84 108: 57.48 109:115.44 110: 11.94 111: 70.01 112: 73.01
 113: 69.79 114: 91.62 115: 20.93 116: 83.86 117:105.95 118: 51.98 119: 71.49 120: 41.84
 121: 72.10 122: 33.97 123: 33.87
 Raman intensities (amu)
   1:  0.00   2:  0.00   3:  0.00   4:  0.00   5:  0.00   6:  0.00   7:  0.00   8:  0.00
   9:  0.00  10:  0.00  11:  0.00  12:  0.00  13:  0.00  14:  0.00  15:  0.00  16:  0.00
  17:  0.00  18:  0.00  19:  0.00  20:  0.00  21:  0.00  22:  0.00  23:  0.00  24:  0.00
  25:  0.00  26:  0.00  27:  0.00  28:  0.00  29:  0.00  30:  0.00  31:  0.00  32:  0.00
  33:  0.00  34:  0.00  35:  0.00  36:  0.00  37:  0.00  38:  0.00  39:  0.00  40:  0.00
  41:  0.00  42:  0.00  43:  0.00  44:  0.00  45:  0.00  46:  0.00  47:  0.00  48:  0.00
  49:  0.00  50:  0.00  51:  0.00  52:  0.00  53:  0.00  54:  0.00  55:  0.00  56:  0.00
  57:  0.00  58:  0.00  59:  0.00  60:  0.00  61:  0.00  62:  0.00  63:  0.00  64:  0.00
  65:  0.00  66:  0.00  67:  0.00  68:  0.00  69:  0.00  70:  0.00  71:  0.00  72:  0.00
  73:  0.00  74:  0.00  75:  0.00  76:  0.00  77:  0.00  78:  0.00  79:  0.00  80:  0.00
  81:  0.00  82:  0.00  83:  0.00  84:  0.00  85:  0.00  86:  0.00  87:  0.00  88:  0.00
  89:  0.00  90:  0.00  91:  0.00  92:  0.00  93:  0.00  94:  0.00  95:  0.00  96:  0.00
  97:  0.00  98:  0.00  99:  0.00 100:  0.00 101:  0.00 102:  0.00 103:  0.00 104:  0.00
 105:  0.00 106:  0.00 107:  0.00 108:  0.00 109:  0.00 110:  0.00 111:  0.00 112:  0.00
 113:  0.00 114:  0.00 115:  0.00 116:  0.00 117:  0.00 118:  0.00 119:  0.00 120:  0.00
 121:  0.00 122:  0.00 123:  0.00
 output can be read by thermo (or use thermo option).
 writing <g98.out> molden fake output.
 recommended (thermochemical) frequency scaling factor: 1.0
           -------------------------------------------------
          |             Thermodynamic Functions             |
           -------------------------------------------------

Molecule has no symmetry elements
It seems to be the C1 point group
c1  symmetry found (for desy threshold:  0.10E+00) used in thermo

          ...................................................
          :                      SETUP                      :
          :.................................................:
          :  # frequencies                         117      :
          :  # imaginary freq.                       0      :
          :  linear?                             false      :
          :  only rotor calc.                    false      :
          :  symmetry                               c1      :
          :  rotational number                       1      :
          :  scaling factor                  1.0000000      :
          :  rotor cutoff                   50.0000000 cm⁻¹ :
          :  imag. cutoff                  -20.0000000 cm⁻¹ :
          :.................................................:

    mode    ω/cm⁻¹     T·S(HO)/kcal·mol⁻¹    T·S(FR)/kcal·mol⁻¹   T·S(vib)
   ------------------------------------------------------------------------
       1     10.01    -2.38779 (  0.16%)    -1.53264 ( 99.84%)    -1.53402
       2     22.47    -1.90900 (  3.92%)    -1.29332 ( 96.08%)    -1.31746
       3     30.18    -1.73450 ( 11.72%)    -1.20599 ( 88.28%)    -1.26793
       4     39.82    -1.57067 ( 28.69%)    -1.12391 ( 71.31%)    -1.25207
       5     51.60    -1.41773 ( 53.15%)    -1.04715 ( 46.85%)    -1.24410
       6     68.27    -1.25304 ( 77.65%)    -0.96425 ( 22.35%)    -1.18850
       7    108.31    -0.98358 ( 95.66%)    -0.82753 (  4.34%)    -0.97680
       8    119.00    -0.92920 ( 96.98%)    -0.79965 (  3.02%)    -0.92528
       9    149.09    -0.80016 ( 98.75%)    -0.73287 (  1.25%)    -0.79932
      10    156.58    -0.77242 ( 98.97%)    -0.71836 (  1.03%)    -0.77187
      11    193.43    -0.65436 ( 99.56%)    -0.65575 (  0.44%)    -0.65436
      12    217.78    -0.58959 ( 99.72%)    -0.62063 (  0.28%)    -0.58968
      13    233.02    -0.55323 ( 99.79%)    -0.60059 (  0.21%)    -0.55333
      14    237.53    -0.54303 ( 99.80%)    -0.59491 (  0.20%)    -0.54313
      15    263.42    -0.48866 ( 99.87%)    -0.56426 (  0.13%)    -0.48876
      16    271.52    -0.47301 ( 99.89%)    -0.55529 (  0.11%)    -0.47311
   ------------------------------------------------------------------------

   temp. (K)  partition function   enthalpy   heat capacity  entropy
                                   cal/mol     cal/K/mol   cal/K/mol   J/K/mol
 298.15  VIB  0.131E+09             9155.207     52.033     59.538
         ROT  0.350E+07              888.752      2.981     32.923
         INT  0.459E+15            10043.960     55.014     92.461
         TR   0.242E+28             1481.254      4.968     41.523
         TOT                       11525.2137    59.9817   133.9840   560.5892

       T/K    H(0)-H(T)+PV         H(T)/Eh          T*S/Eh         G(T)/Eh
   ------------------------------------------------------------------------
    298.15    0.183666E-01    0.403565E+00    0.636601E-01    0.339905E+00
   ------------------------------------------------------------------------

         :::::::::::::::::::::::::::::::::::::::::::::::::::::
         ::                  THERMODYNAMIC                  ::
         :::::::::::::::::::::::::::::::::::::::::::::::::::::
         :: total free energy         -41.800965614293 Eh   ::
         ::.................................................::
         :: total energy              -42.140870895758 Eh   ::
         :: zero point energy           0.385198819217 Eh   ::
         :: G(RRHO) w/o ZPVE           -0.045293537752 Eh   ::
         :: G(RRHO) contrib.            0.339905281465 Eh   ::
         :::::::::::::::::::::::::::::::::::::::::::::::::::::
 
 normal mode %tage of torsion character
   1:  0.00   2:  0.00   3:  0.00   4:  0.00   5:  0.00   6:  0.00   7:  0.28   8:  0.30
   9:  0.61  10:  0.49  11:  0.40  12:  0.54  13:  0.57  14:  0.62  15:  0.56  16:  0.50
  17:  0.64  18:  0.39  19:  0.87  20:  0.56  21:  0.59  22:  0.57  23:  0.59  24:  0.27
  25:  0.30  26:  0.20  27:  0.14  28:  0.19  29:  0.17  30:  0.56  31:  0.52  32:  0.53
  33:  0.51  34:  0.38  35:  0.41  36:  0.49  37:  0.41  38:  0.31  39:  0.36  40:  0.10
  41:  0.26  42:  0.31  43:  0.39  44:  0.17  45:  0.34  46:  0.17  47:  0.29  48:  0.31
  49:  0.27  50:  0.08  51:  0.10  52:  0.10  53:  0.09  54:  0.24  55:  0.40  56:  0.24
  57:  0.14  58:  0.40  59:  0.47  60:  0.34  61:  0.29  62:  0.18  63:  0.28  64:  0.21
  65:  0.10  66:  0.12  67:  0.16  68:  0.13  69:  0.15  70:  0.07  71:  0.09  72:  0.09
  73:  0.10  74:  0.09  75:  0.07  76:  0.06  77:  0.08  78:  0.06  79:  0.00  80:  0.00
  81:  0.64  82:  0.67  83:  0.63  84:  0.63  85:  0.62  86:  0.66  87:  0.65  88:  0.61
  89:  0.67  90:  0.71  91:  0.92  92:  0.61  93:  0.77  94:  0.88  95:  0.81  96:  0.34
  97:  0.17  98:  0.22  99:  0.34 100:  0.29 101:  0.30 102:  0.09 103:  0.18 104:  0.11
 105:  0.05 106:  0.05 107:  0.01 108:  0.01 109:  0.01 110:  0.02 111:  0.02 112:  0.01
 113:  0.03 114:  0.03 115:  0.07 116:  0.03 117:  0.09 118:  0.04 119:  0.08 120:  0.04
 121:  0.03 122:  0.00 123:  0.01
 recommended # of modes for mode following           4

optimized geometry written to: xtbopt.xyz


           -------------------------------------------------
          | TOTAL ENERGY              -42.140870895758 Eh   |
          | TOTAL ENTHALPY            -41.737305479502 Eh   |
          | TOTAL FREE ENERGY         -41.800965614293 Eh   |
          | GRADIENT NORM               0.000290268640 Eh/α |
          | HOMO-LUMO GAP              12.592075426316 eV   |
           -------------------------------------------------

------------------------------------------------------------------------
 * finished run on 2024/04/20 at 10:57:21.713     
------------------------------------------------------------------------
 total:
 * wall-time:     0 d,  0 h,  0 min,  4.744 sec
 *  cpu-time:     0 d,  0 h,  0 min,  9.257 sec
 * ratio c/w:     1.951 speedup
 SCF:
 * wall-time:     0 d,  0 h,  0 min,  0.039 sec
 *  cpu-time:     0 d,  0 h,  0 min,  0.084 sec
 * ratio c/w:     2.145 speedup
 ANC optimizer:
 * wall-time:     0 d,  0 h,  0 min,  0.559 sec
 *  cpu-time:     0 d,  0 h,  0 min,  1.660 sec
 * ratio c/w:     2.969 speedup
 analytical hessian:
 * wall-time:     0 d,  0 h,  0 min,  2.761 sec
 *  cpu-time:     0 d,  0 h,  0 min,  6.811 sec
 * ratio c/w:     2.467 speedup

