41
 energy: -42.137870580884 gnorm: 0.032503888092 xtb: 6.6.1 (8d0f1dd)
C            5.25546100000000       -1.41247900000000        1.45684500000000
C            3.78331700000000       -1.27197100000000        1.10287100000000
C            3.44551900000000        0.09543400000000        0.50670600000000
C            1.97209200000000        0.23033900000000        0.12312600000000
C            1.63010200000000        1.59967500000000       -0.46584900000000
C            0.14755800000000        1.75592700000000       -0.81694600000000
C           -0.29733600000000        0.87290100000000       -1.98392400000000
C           -1.77898300000000        1.02823900000000       -2.34045600000000
C           -2.73650900000000        0.62635500000000       -1.21422200000000
C           -2.61162900000000       -0.84092900000000       -0.80182000000000
C           -3.59764600000000       -1.25558100000000        0.29430800000000
C           -3.40339200000000       -0.51860800000000        1.62413700000000
C           -2.03759800000000       -0.75348400000000        2.25106700000000
H            5.48353600000000       -2.39130300000000        1.88604500000000
H            5.56144300000000       -0.65635100000000        2.18297000000000
H            5.88760900000000       -1.28573200000000        0.57534100000000
H            3.48795200000000       -2.05862700000000        0.39522800000000
H            3.16141800000000       -1.44370600000000        1.99204400000000
H            4.07348200000000        0.27900800000000       -0.37412800000000
H            3.71640500000000        0.88541400000000        1.21835400000000
H            1.34444600000000        0.04141400000000        1.00283700000000
H            1.70937800000000       -0.56115900000000       -0.58849600000000
H            2.24051100000000        1.77764700000000       -1.35974700000000
H            1.93197400000000        2.37878400000000        0.24676400000000
H           -0.07664400000000        2.80382100000000       -1.05708600000000
H           -0.45446900000000        1.53088600000000        0.07099000000000
H           -0.08416600000000       -0.17730700000000       -1.75642200000000
H            0.32501500000000        1.10012000000000       -2.85985400000000
H           -1.96822900000000        2.06934600000000       -2.63380400000000
H           -2.00883500000000        0.43119400000000       -3.23300500000000
H           -3.77385900000000        0.82572400000000       -1.51470600000000
H           -2.56903600000000        1.27072200000000       -0.34407600000000
H           -2.74894300000000       -1.47319300000000       -1.68946200000000
H           -1.58867200000000       -1.04637000000000       -0.46688600000000
H           -3.51650100000000       -2.33614000000000        0.47287800000000
H           -4.62187900000000       -1.10048200000000       -0.06997200000000
H           -4.18858800000000       -0.82450900000000        2.33070500000000
H           -3.56674200000000        0.55686600000000        1.47687500000000
H           -1.23357100000000       -0.37518200000000        1.61767400000000
H           -1.94156000000000       -0.25956400000000        3.22114300000000
H           -1.85198300000000       -1.81819700000000        2.40571000000000
41
 energy: -42.140278258315 gnorm: 0.014300270439 xtb: 6.6.1 (8d0f1dd)
C            5.25044748122788       -1.40474262769258        1.45328359190898
C            3.77730185527151       -1.26855911441642        1.10038717882231
C            3.44609304505450        0.09975219319367        0.50555189689246
C            1.97261855964002        0.22594897138799        0.12425068903751
C            1.63297196036193        1.59266668948128       -0.47024160338756
C            0.15060063220244        1.74936709676533       -0.81332868466408
C           -0.29504829933116        0.86902815758286       -1.98050280892037
C           -1.77552924841749        1.02582268875219       -2.33341317552700
C           -2.73436265289834        0.62722486865235       -1.21015654333785
C           -2.60782347081332       -0.83930689941356       -0.80055874652373
C           -3.59436279779253       -1.25017529294867        0.29316066846791
C           -3.40226903786907       -0.51561295730318        1.62206606507192
C           -2.03731525314423       -0.75630490083549        2.24921829111385
H            5.46267063226130       -2.38494775342114        1.87966334547895
H            5.54730061941611       -0.65019707134372        2.18150677995883
H            5.87485936732561       -1.28124447862822        0.56854976292296
H            3.49890009799051       -2.05065417449102        0.38521187630723
H            3.16871547469240       -1.42988320559816        1.99710925681957
H            4.06616985913399        0.26858779593143       -0.38135808349260
H            3.70539126207051        0.88170263334163        1.22730922166641
H            1.35317784157515        0.05267281611065        1.01129071726308
H            1.72513944022244       -0.55993545071356       -0.59547782455482
H            2.23600904534024        1.76101945839859       -1.36873034011559
H            1.91603120503828        2.36845467526986        0.24993343848235
H           -0.05591060998742        2.79603362565872       -1.06354643599897
H           -0.44185827114067        1.51464188633279        0.07532382256007
H           -0.09071018884267       -0.17908181701475       -1.75106285036787
H            0.30909071589765        1.11718886227574       -2.86045658677184
H           -1.96744341145967        2.06847872652856       -2.61030528134735
H           -1.99447840349993        0.41933072722196       -3.21940070364962
H           -3.76380815701884        0.81764804212511       -1.53429393256697
H           -2.55781470490380        1.26960242918295       -0.34461032456900
H           -2.77015290807427       -1.46898991243092       -1.68271698788401
H           -1.59111749848538       -1.04106155292797       -0.45644431749036
H           -3.49777032640884       -2.32730178467290        0.46976366722389
H           -4.61621587256398       -1.07922850385592       -0.06313974691068
H           -4.18035649809193       -0.84497579816818        2.32039801298360
H           -3.55561937287022        0.55776618953414        1.47448920950008
H           -1.23927190588915       -0.36982839006429        1.61738066840142
H           -1.96181121140239       -0.26062813061486        3.21691134621213
H           -1.86199099381718       -1.82133671717232        2.40074247098477
41
 energy: -42.140650428922 gnorm: 0.002473836291 xtb: 6.6.1 (8d0f1dd)
C            5.24846127712460       -1.40002067506251        1.45186671058983
C            3.77327332766397       -1.26601783551544        1.09884118280011
C            3.44626291849846        0.10257150262795        0.50461221438687
C            1.97277053025926        0.22242416058222        0.12401227382432
C            1.63605859575306        1.58837367643410       -0.47255097734111
C            0.15323578801652        1.74488347869373       -0.81194322093948
C           -0.29215896465492        0.86692205444236       -1.98017178191092
C           -1.77280812588274        1.02530142933550       -2.33055016786777
C           -2.73340912199325        0.62763116876196       -1.20892447784631
C           -2.60713833573757       -0.83822991419262       -0.80046305485809
C           -3.59448976389449       -1.24669174633346        0.29280931612302
C           -3.40326296951099       -0.51534652690072        1.62292480974954
C           -2.03715791251283       -0.75756867654557        2.25157654689032
H            5.45277389745032       -2.38070442092690        1.87655427230840
H            5.53903500368061       -0.64496445363233        2.17952261233513
H            5.86735307426917       -1.27588003416304        0.56546188090689
H            3.50240826402631       -2.04426020490031        0.38061722307636
H            3.17042762305124       -1.42204989507250        1.99710374383697
H            4.06217960422316        0.26511824959613       -0.38364978822642
H            3.70002956573856        0.88015632572485        1.22973960253708
H            1.35854680071213        0.05782479148785        1.01387757104626
H            1.73313055452181       -0.56254350076522       -0.59597123841477
H            2.23428845959258        1.74911338783236       -1.37306397495834
H            1.91235366160168        2.36234860414870        0.24891632681410
H           -0.04452859849791        2.79019176285934       -1.06504321636821
H           -0.43219434935174        1.50483483315170        0.07728397321076
H           -0.09092853253817       -0.17975803492851       -1.75309124501853
H            0.30149215641358        1.12794474120415       -2.86089217414762
H           -1.96489708462529        2.06804960098244       -2.59852842095991
H           -1.98620841848948        0.41474257619559       -3.21238125031182
H           -3.75743655472065        0.81291824893440       -1.54568852142594
H           -2.55489910145356        1.26881828722404       -0.34612406427329
H           -2.78199711040826       -1.46521174497131       -1.67940933969121
H           -1.59437642423393       -1.03947356167050       -0.45290823501772
H           -3.49111089275023       -2.32117640524366        0.46805559916007
H           -4.61355285451489       -1.06733746887795       -0.06057386079671
H           -4.17726312457369       -0.85707093249303        2.31551738255263
H           -3.55183133087901        0.55616391557064        1.47747191453816
H           -1.24184028725295       -0.36637779674828        1.62215477267052
H           -1.97318289103203       -0.26419433178011        3.21940458372907
H           -1.86696035308846       -1.82251263506606        2.39736149728778
41
 energy: -42.140675005741 gnorm: 0.000867700911 xtb: 6.6.1 (8d0f1dd)
C            5.24856823159782       -1.39872977596862        1.45204439213655
C            3.77270338981449       -1.26546577864707        1.09861347881414
C            3.44667685317190        0.10315777243310        0.50443190634815
C            1.97305525990341        0.22147882956362        0.12407806635443
C            1.63764432528065        1.58675284782463       -0.47421638828529
C            0.15421980638877        1.74381158008679       -0.81205913392730
C           -0.29069695993246        0.86714102979844       -1.98129923005434
C           -1.77192926898049        1.02557093554030       -2.33082435552653
C           -2.73349041825188        0.62799351588001       -1.20936442410560
C           -2.60754918632700       -0.83779772560634       -0.80064886520451
C           -3.59536078389695       -1.24567426756666        0.29309177777343
C           -3.40452364604748       -0.51575482643106        1.62438175951550
C           -2.03800766885822       -0.75859552168985        2.25396152938661
H            5.45288941728593       -2.37916176937460        1.87648197362356
H            5.53748253680545       -0.64295404381712        2.17923919285581
H            5.86631798754769       -1.27344024915700        0.56531599447470
H            3.50230680676456       -2.04298991963434        0.38014776492863
H            3.16976442796950       -1.42097187761830        1.99634140310533
H            4.06216208011991        0.26582098113630       -0.38361419171073
H            3.69957316043270        0.88070326608830        1.22925679287673
H            1.35938929777361        0.05817857693938        1.01400758507062
H            1.73413633280725       -0.56452218683428       -0.59435548933417
H            2.23504172548969        1.74521947015156       -1.37521186441151
H            1.91524069185038        2.36062322255396        0.24615248655013
H           -0.04354131622952        2.78891706784347       -1.06391121545266
H           -0.42963187279470        1.50209651138502        0.07736988036365
H           -0.08851729022985       -0.17964722025677       -1.75682122841819
H            0.30136429236461        1.13111269256672       -2.86160056788560
H           -1.96328100645660        2.06827510221452       -2.59770475236695
H           -1.98525482869351        0.41521802013010       -3.21229911168121
H           -3.75647048649369        0.81251301526364       -1.54821377794608
H           -2.55640604431882        1.26943448693432       -0.34677694755985
H           -2.78415082125419       -1.46425418619854       -1.67908235955669
H           -1.59512453699075       -1.04008249540034       -0.45349935457281
H           -3.49283722416005       -2.31998435730881        0.46757648715708
H           -4.61369032968417       -1.06458209161747       -0.06034669166741
H           -4.17776601073622       -0.85999127851520        2.31581023533817
H           -3.55331238983743        0.55570132191911        1.48117403922301
H           -1.24270601673278       -0.36454709002283        1.62662379899924
H           -1.97657951310676       -0.26795124221596        3.22307905030618
H           -1.86726100335483       -1.82368034237211        2.39642735446577
41
 energy: -42.140709697126 gnorm: 0.003319587651 xtb: 6.6.1 (8d0f1dd)
C            5.24995040089867       -1.39463928834306        1.45342103712497
C            3.77298235218545       -1.26409781317366        1.09858458362879
C            3.44820089437262        0.10407603058465        0.50426621331823
C            1.97452866635651        0.21894227931840        0.12382487868304
C            1.64251457194399        1.58167181285547       -0.48053230636083
C            0.15751628949708        1.74034837254492       -0.81318786442884
C           -0.28684014420533        0.86874406785190       -1.98604195300443
C           -1.76971782260222        1.02693852061624       -2.33251641196560
C           -2.73355465511697        0.62957687021450       -1.21130077836720
C           -2.60918553585272       -0.83583861968275       -0.80056858396266
C           -3.59872603073284       -1.24182164266594        0.29412582216465
C           -3.40894616960370       -0.51808684656697        1.62975653875429
C           -2.04219768324334       -0.76263891731140        2.26220651207341
H            5.45665204089441       -2.37409036399948        1.87743014322463
H            5.53431790756565       -0.63677805281736        2.17974212635542
H            5.86551441158582       -1.26573664610460        0.56610548639487
H            3.50340643309897       -2.04060665816525        0.37964211208823
H            3.16854028694263       -1.41917699424685        1.99465004899193
H            4.06321439431505        0.26800466552153       -0.38326586861526
H            3.69921420474578        0.88258437039581        1.22790493265469
H            1.36164285430792        0.05987988112730        1.01426384609605
H            1.73599389798965       -0.57154958522247       -0.58906732338719
H            2.23711043728671        1.73233114998122       -1.38411541390673
H            1.92685459882816        2.35702570603496        0.23469631238988
H           -0.04238281563709        2.78567740294294       -1.05926457147555
H           -0.42232242694738        1.49293655593817        0.07681378813811
H           -0.08005708504917       -0.17887806676377       -1.77031560365547
H            0.30164804780515        1.14131123197154       -2.86531582277752
H           -1.95909014622536        2.06982414335042       -2.59751315447313
H           -1.98416768480290        0.41781757494979       -3.21384916582129
H           -3.75443135182650        0.81236917868305       -1.55533877081382
H           -2.56169852436615        1.27257510894076       -0.34897336326327
H           -2.78958199665698       -1.46188052972972       -1.67783587846581
H           -1.59687778420028       -1.04134383112427       -0.45533363840171
H           -3.50101110493903       -2.31659053112131        0.46562683526711
H           -4.61542967120706       -1.05547321159820       -0.05999519526609
H           -4.18128471972325       -0.86904766481090        2.31787201736452
H           -3.55938325670238        0.55386710328721        1.49444102358722
H           -1.24615218425205       -0.35747081045452        1.64307558377158
H           -1.98839163317376       -0.28328254176580        3.23724565782479
H           -1.86792426355381       -1.82853141144252        2.39239316851603
41
 energy: -42.140724037103 gnorm: 0.002248560709 xtb: 6.6.1 (8d0f1dd)
C            5.25099583649851       -1.39351756079196        1.45422302613965
C            3.77440912602629       -1.26408304112070        1.09902790460836
C            3.44876229130342        0.10368158452682        0.50436150167805
C            1.97523167496338        0.21867274865201        0.12368171325464
C            1.64329576780371        1.58046099191241       -0.48274843383330
C            0.15820819784804        1.73938432806593       -0.81380195022685
C           -0.28683952898511        0.86944689096588       -1.98759452893549
C           -1.76980056888997        1.02743031491712       -2.33294345882787
C           -2.73352860097588        0.63031725864011       -1.21168788920841
C           -2.60952757916428       -0.83485526436489       -0.79993365713696
C           -3.59958427910397       -1.24049549181786        0.29426477045036
C           -3.41010553325006       -0.51890019364837        1.63095912887818
C           -2.04408835176856       -0.76414195979445        2.26384579787854
H            5.45887082547104       -2.37281818739394        1.87829059640214
H            5.53486272280253       -0.63561894333216        2.18086166775069
H            5.86706323305158       -1.26417654825305        0.56718643150492
H            3.50533267383677       -2.04114544068266        0.38012466726862
H            3.16954538937228       -1.41965558885558        1.99502213743819
H            4.06406328312153        0.26779154921872       -0.38322054939569
H            3.69964975052730        0.88260615588398        1.22794811698535
H            1.36206298189901        0.06104375510712        1.01448259037705
H            1.73600248053900       -0.57293426527804       -0.58810140426166
H            2.23687531710086        1.72912143148525       -1.38757341083835
H            1.92960315469151        2.35721964044360        0.23052812956302
H           -0.04264179290601        2.78522604502738       -1.05796569683348
H           -0.42122501236104        1.49042851899137        0.07620483324160
H           -0.07890004576389       -0.17844000479025       -1.77351755257446
H            0.30120697942659        1.14348566796155       -2.86703402497808
H           -1.95936017428005        2.07046371119992       -2.59812946580041
H           -1.98486830646898        0.41856036780629       -3.21455893239047
H           -3.75455608545727        0.81298787074085       -1.55611548626695
H           -2.56228975460735        1.27387022022382       -0.34946077478005
H           -2.78974697676168       -1.46155371398439       -1.67705762415054
H           -1.59707530364440       -1.04036379403134       -0.45465149837692
H           -3.50349777583130       -2.31581766435847        0.46454356464263
H           -4.61618028430957       -1.05277146740791       -0.06008944790287
H           -4.18310650045753       -0.87089993255364        2.31821384954118
H           -3.56089788927035        0.55339900899260        1.49740144781156
H           -1.24764382363277       -0.35536518280753        1.64751072451384
H           -1.99189141639808       -0.28877946659185        3.24103554736796
H           -1.86823810199526       -1.83032234890369        2.39022463942229
41
 energy: -42.140756574789 gnorm: 0.001638913929 xtb: 6.6.1 (8d0f1dd)
C            5.25632808644981       -1.38827798602856        1.45815134729695
C            3.78109532012193       -1.26402555632999        1.10102452057657
C            3.45157201968098        0.10204648704466        0.50453488560123
C            1.97845865375358        0.21713716713462        0.12301978069223
C            1.64669630438280        1.57495138339505       -0.49265492074779
C            0.16097057080724        1.73486832557091       -0.81659685526785
C           -0.28778938965567        0.87195401413631       -1.99417934299634
C           -1.77110282213697        1.02977341208393       -2.33455923433546
C           -2.73366359523525        0.63413218208452       -1.21245201815670
C           -2.61044433933983       -0.82999386827627       -0.79670215692657
C           -3.60362527255253       -1.23466893787675        0.29424281201422
C           -3.41552765071512       -0.52208604958846        1.63548079965862
C           -2.05262407599992       -0.77122216377229        2.27030840487629
H            5.46839733720069       -2.36709231564996        1.88246001177862
H            5.53778729447421       -0.63032560332431        2.18621704978383
H            5.87476966462169       -1.25712144050675        0.57258081622700
H            3.51511454212572       -2.04357492662957        0.38254229006242
H            3.17502113366084       -1.42153617428639        1.99675404057849
H            4.06776513604755        0.26611330005213       -0.38324493875090
H            3.70196566740168        0.88238366905414        1.22780848094151
H            1.36456833916158        0.06643610555238        1.01544444152557
H            1.73632507148661       -0.57896240965575       -0.58388398569299
H            2.23534778371381        1.71463550760182       -1.40292525453135
H            1.94063648435732        2.35787748512523        0.21192619500963
H           -0.04309880461327        2.78270712938519       -1.05286372218726
H           -0.41633350598348        1.47941302871372        0.07347381667079
H           -0.07610380059262       -0.17698190831063       -1.78664602628581
H            0.29778689181361        1.15188746568033       -2.87443688172344
H           -1.96160102359598        2.07322382226366       -2.60038742955794
H           -1.98870620155904        0.42146118616129       -3.21677601389219
H           -3.75528387340839        0.81615447090188       -1.55778290850876
H           -2.56368626433104        1.27977148838471       -0.35100298099542
H           -2.78844424869378       -1.45930401420594       -1.67325498889188
H           -1.59800202704015       -1.03427257247053       -0.44941272438510
H           -3.51392620137984       -2.31204793692050        0.45915641649094
H           -4.61931439601586       -1.04072067584764       -0.06133196888768
H           -4.19149384478350       -0.87815080645057        2.31857599522595
H           -3.56660803517111        0.55157210374026        1.50892148353856
H           -1.25461840025101       -0.34650223935129        1.66625807921285
H           -2.00759847722987       -0.31388323137294        3.25703712887316
H           -1.87056205097748       -1.83880691721168        2.37893255608602
41
 energy: -42.140770033122 gnorm: 0.002031936535 xtb: 6.6.1 (8d0f1dd)
C            5.26027506988086       -1.38505174717498        1.46093832890167
C            3.78535244401239       -1.26389965150705        1.10216488554266
C            3.45371011027877        0.10122395274923        0.50406375358538
C            1.98046342747990        0.21583000314242        0.12261999686411
C            1.64852908326426        1.57150885196846       -0.49828096249624
C            0.16209527714301        1.73211358429426       -0.81837392143986
C           -0.28937354489134        0.87254773399501       -1.99748233615589
C           -1.77302102743241        1.03145483478505       -2.33510411228572
C           -2.73411915145950        0.63705188638780       -1.21155686844936
C           -2.61021736141886       -0.82659116487671       -0.79436432866454
C           -3.60626801385348       -1.23168960738209        0.29347452679870
C           -3.41921581870555       -0.52329910484845        1.63697984275311
C           -2.05777429513873       -0.77587173140717        2.27284627778016
H            5.47375703448997       -2.36364661975603        1.88542697344585
H            5.53990198114939       -0.62699828660068        2.18971672824864
H            5.88009805195540       -1.25287778551238        0.57639525698419
H            3.52188586614586       -2.04484197966829        0.38417794628688
H            3.17897896794413       -1.42210615469554        1.99765328388550
H            4.06990403587584        0.26456706265678       -0.38389158034210
H            3.70386042289378        0.88221627078426        1.22678663195283
H            1.36679913820299        0.06922304493202        1.01593633430435
H            1.73692045296921       -0.58243916108641       -0.58143954234428
H            2.23428542304493        1.70629700634395       -1.41117965586784
H            1.94573250151880        2.35745935745977        0.20157470096939
H           -0.04274372132504        2.78067489261024       -1.05106899907032
H           -0.41359550645452        1.47382994277461        0.07194267257054
H           -0.07746267866524       -0.17690527189405       -1.79266189378548
H            0.29463828092407        1.15450238887205       -2.87820184778682
H           -1.96367953158331        2.07490702266408       -2.60128607722546
H           -1.99233508563961        0.42293100619829       -3.21688406037503
H           -3.75620823680638        0.81869225624976       -1.55591768463198
H           -2.56310202884301        1.28348987009211       -0.35087747801912
H           -2.78458451345375       -1.45687509555089       -1.67101410583402
H           -1.59853187791844       -1.02882838579094       -0.44366912891528
H           -3.51942205672902       -2.30976187305114        0.45565776174651
H           -4.62090231728559       -1.03440264517540       -0.06336390789403
H           -4.19689899476968       -0.88048976779234        2.31762894418240
H           -3.56886210570400        0.55093663475372        1.51325804188195
H           -1.25903727236585       -0.34282425983224        1.67583088421661
H           -2.01628040475491       -0.32908233480338        3.26449905192252
H           -1.87310402397541       -1.84403297530777        2.37080266675945
41
 energy: -42.140789286043 gnorm: 0.001088935342 xtb: 6.6.1 (8d0f1dd)
C            5.26562075538942       -1.38089304361152        1.46474078891426
C            3.79061854200347       -1.26335750070472        1.10325531802959
C            3.45680627822118        0.10049314378138        0.50256766219533
C            1.98294269281445        0.21358738875757        0.12193481366579
C            1.65069018695668        1.56701797542174       -0.50454060559958
C            0.16311564085557        1.72866765042865       -0.82068408434787
C           -0.29208387292345        0.87197343876437       -2.00058185512084
C           -1.77632390072047        1.03387679671799       -2.33515851645607
C           -2.73487079875382        0.64136616853380       -1.20880456757308
C           -2.60910884663423       -0.82192279922362       -0.79105975612137
C           -3.60981275458832       -1.22878687074754        0.29172424886984
C           -3.42420043853268       -0.52406314981789        1.63744251974185
C           -2.06410970481384       -0.78201384421551        2.27465104141342
H            5.47993918650617       -2.35913039678533        1.88961008600580
H            5.54231070609162       -0.62237126454590        2.19407661619514
H            5.88689883735527       -1.24747100580442        0.58148498909052
H            3.53056623538905       -2.04590179686708        0.38613187485011
H            3.18386918569860       -1.42166638112786        1.99820357962263
H            4.07228778082098        0.26236433609267       -0.38587417670618
H            3.70674743067108        0.88259237335715        1.22384965972773
H            1.37041524220636        0.07147515789670        1.01643201328083
H            1.73813576585003       -0.58716239988966       -0.57855208303186
H            2.23333967427326        1.69655645716576       -1.41985333614164
H            1.95073187536952        2.35571122186511        0.19049952687928
H           -0.04152633480224        2.77762602440578       -1.05059450131870
H           -0.41025340584743        1.46857474863840        0.07039505416968
H           -0.08205354047836       -0.17813078345811       -1.79782108025620
H            0.29023192786031        1.15454601899217       -2.88186944244139
H           -1.96614844907001        2.07724045319630       -2.60165841758840
H           -1.99846266080181        0.42479930788441       -3.21568382700847
H           -3.75774138707954        0.82262985187633       -1.55040870236761
H           -2.56106604111020        1.28840982467169       -0.34925761382293
H           -2.77660631145711       -1.45259430766558       -1.66854121267915
H           -1.59906158300315       -1.02078086876454       -0.43415131628301
H           -3.52546852400976       -2.30721651265304        0.45129318383319
H           -4.62269543908858       -1.02814906862566       -0.06753703252491
H           -4.20390983597368       -0.88106884965788        2.31543517328773
H           -3.57047249340594        0.55072027499168        1.51581666304536
H           -1.26453515015758       -0.34030584949382        1.68552124802248
H           -2.02633929144980       -0.34745901889688        3.27157830235908
H           -1.87796917963109       -1.85084090088316        2.35974476418967
41
 energy: -42.140802177543 gnorm: 0.001037809349 xtb: 6.6.1 (8d0f1dd)
C            5.27534911615761       -1.37230160915677        1.47195890404783
C            3.80033116683393       -1.26159643607891        1.10477613474062
C            3.46293751701947        0.09924011276261        0.49846617128334
C            1.98771513099094        0.20867393296210        0.12010558666804
C            1.65502457652839        1.55797327413426       -0.51593973805619
C            0.16549801563405        1.72197693738415       -0.82518453018321